
                                 *****************
                                 * O   R   C   A *
                                 *****************

           --- An Ab Initio, DFT and Semiempirical electronic structure package ---

                  #######################################################
                  #                        -***-                        #
                  #          Department of theory and spectroscopy      #
                  #               Directorship: Frank Neese             #
                  #        Max Planck Institute fuer Kohlenforschung    #
                  #                Kaiser Wilhelm Platz 1               #
                  #                 D-45470 Muelheim/Ruhr               #
                  #                      Germany                        #
                  #                                                     #
                  #                  All rights reserved                #
                  #                        -***-                        #
                  #######################################################


                         Program Version 4.2.0 -  RELEASE  -


 With contributions from (in alphabetic order):
   Daniel Aravena         : Magnetic Suceptibility
   Michael Atanasov       : Ab Initio Ligand Field Theory (pilot matlab implementation)
   Alexander A. Auer      : GIAO ZORA, VPT2
   Ute Becker             : Parallelization
   Giovanni Bistoni       : ED, misc. LED, open-shell LED, HFLED
   Martin Brehm           : Molecular dynamics
   Dmytro Bykov           : SCF Hessian
   Vijay G. Chilkuri      : MRCI spin determinant printing, contributions to CSF-ICE
   Dipayan Datta          : RHF DLPNO-CCSD density
   Achintya Kumar Dutta   : EOM-CC, STEOM-CC
   Dmitry Ganyushin       : Spin-Orbit,Spin-Spin,Magnetic field MRCI
   Miquel Garcia          : C-PCM Hessian, Gaussian charge scheme
   Yang Guo               : DLPNO-NEVPT2, CIM, IAO-localization
   Andreas Hansen         : Spin unrestricted coupled pair/coupled cluster methods
   Benjamin Helmich-Paris : CASSCF linear response (MC-RPA)
   Lee Huntington         : MR-EOM, pCC
   Robert Izsak           : Overlap fitted RIJCOSX, COSX-SCS-MP3, EOM
   Christian Kollmar      : KDIIS, OOCD, Brueckner-CCSD(T), CCSD density
   Simone Kossmann        : Meta GGA functionals, TD-DFT gradient, OOMP2, MP2 Hessian
   Martin Krupicka        : AUTO-CI
   Lucas Lang             : DCDCAS
   Dagmar Lenk            : GEPOL surface, SMD
   Dimitrios Liakos       : Extrapolation schemes; Compound Job, initial MDCI parallelization
   Dimitrios Manganas     : Further ROCIS development; embedding schemes
   Dimitrios Pantazis     : SARC Basis sets
   Taras Petrenko         : DFT Hessian,TD-DFT gradient, ASA, ECA, R-Raman, ABS, FL, XAS/XES, NRVS
   Peter Pinski           : DLPNO-MP2, DLPNO-MP2 Gradient
   Christoph Reimann      : Effective Core Potentials
   Marius Retegan         : Local ZFS, SOC
   Christoph Riplinger    : Optimizer, TS searches, QM/MM, DLPNO-CCSD(T), (RO)-DLPNO pert. Triples
   Tobias Risthaus        : Range-separated hybrids, TD-DFT gradient, RPA, STAB
   Michael Roemelt        : Original ROCIS implementation
   Masaaki Saitow         : Open-shell DLPNO-CCSD energy and density
   Barbara Sandhoefer     : DKH picture change effects
   Avijit Sen             : IP-ROCIS
   Kantharuban Sivalingam : CASSCF convergence, NEVPT2, FIC-MRCI
   Bernardo de Souza      : ESD, SOC TD-DFT
   Georgi Stoychev        : AutoAux, RI-MP2 NMR
   Willem Van den Heuvel  : Paramagnetic NMR
   Boris Wezisla          : Elementary symmetry handling
   Frank Wennmohs         : Technical directorship


 We gratefully acknowledge several colleagues who have allowed us to
 interface, adapt or use parts of their codes:
   Stefan Grimme, W. Hujo, H. Kruse,             : VdW corrections, initial TS optimization,
                  C. Bannwarth                     DFT functionals, gCP, sTDA/sTD-DF
   Ed Valeev, F. Pavosevic, A. Kumar             : LibInt (2-el integral package), F12 methods
   Garnet Chan, S. Sharma, J. Yang, R. Olivares  : DMRG
   Ulf Ekstrom                                   : XCFun DFT Library
   Mihaly Kallay                                 : mrcc  (arbitrary order and MRCC methods)
   Andreas Klamt, Michael Diedenhofen            : otool_cosmo (COSMO solvation model)
   Jiri Pittner, Ondrej Demel                    : Mk-CCSD
   Frank Weinhold                                : gennbo (NPA and NBO analysis)
   Christopher J. Cramer and Donald G. Truhlar   : smd solvation model
   Lars Goerigk                                  : TD-DFT with DH, B97 family of functionals
   V. Asgeirsson, H. Jonsson                     : NEB implementation
   FAccTs GmbH                                   : IRC, NEB, NEB-TS, Multilevel, MM, QM/MM, CI optimization
   S Lehtola, MJT Oliveira, MAL Marques          : LibXC Library


 Your calculation uses the libint2 library for the computation of 2-el integrals
 For citations please refer to: http://libint.valeyev.net

 Your ORCA version has been built with support for libXC version: 4.2.3
 For citations please refer to: https://tddft.org/programs/libxc/

 This ORCA versions uses:
   CBLAS   interface :  Fast vector & matrix operations
   LAPACKE interface :  Fast linear algebra routines
   SCALAPACK package :  Parallel linear algebra routines


Your calculation utilizes the atom-pairwise dispersion correction
with the Becke-Johnson damping scheme (D3BJ)
Cite in your paper:
S.Grimme, S.Ehrlich, L.Goerigk, J Comput Chem, (2011), 32, 1456–1465 
S.Grimme, J.Antony, S.Ehrlich and H.Krieg, J.Chem.Phys., 132, (2010), 154104 
   

----- Orbital basis set information -----
Your calculation utilizes the basis: def2-TZVPPD
   F. Weigend and R. Ahlrichs, Phys. Chem. Chem. Phys. 7, 3297 (2005).
   D. Rappoport and F. Furche, J. Chem. Phys. 133 134105 (2010).

----- AuxJ basis set information -----
Your calculation utilizes the auxiliary basis: def2/J
   F. Weigend, Phys. Chem. Chem. Phys. 8, 1057 (2006).

================================================================================
                                        WARNINGS
                       Please study these warnings very carefully!
================================================================================


WARNING: Geometry Optimization
  ===> : Switching off AutoStart
         For restart on a previous wavefunction, please use MOREAD

INFO   : the flag for use of LIBINT has been found!

================================================================================
                                       INPUT FILE
================================================================================
NAME = Cu03C1_LIN.in
|  1> #
|  2> # Cu03C1_LIN TPSS-D3BJ/Def2-TZVPPD
|  3> #
|  4> ! tpss d3bj def2-tzvppd def2/j grid4 nofinalgrid opt xyzfile numfreq
|  5> 
|  6> *xyz 1 1
|  7> Cu       0.000000    0.000000    0.000000 
|  8> Cu       0.000000    0.000000    2.337165 
|  9> Cu       0.000000    0.000000   -2.337165 
| 10> *
| 11> 
| 12> %maxcore 5000
| 13> 
| 14> %pal
| 15> nprocs = 24
| 16> end
| 17> 
| 18> 
| 19>                          ****END OF INPUT****
================================================================================

                       *****************************
                       * Geometry Optimization Run *
                       *****************************

Geometry optimization settings:
Update method            Update   .... BFGS
Choice of coordinates    CoordSys .... Z-matrix Internals
Initial Hessian          InHess   .... Almoef's Model

Convergence Tolerances:
Energy Change            TolE     ....  5.0000e-06 Eh
Max. Gradient            TolMAXG  ....  3.0000e-04 Eh/bohr
RMS Gradient             TolRMSG  ....  1.0000e-04 Eh/bohr
Max. Displacement        TolMAXD  ....  4.0000e-03 bohr
RMS Displacement         TolRMSD  ....  2.0000e-03 bohr
Strict Convergence                ....  False
------------------------------------------------------------------------------
                        ORCA OPTIMIZATION COORDINATE SETUP
------------------------------------------------------------------------------

The optimization will be done in new redundant internal coordinates
Making redundant internal coordinates   ...  (new redundants) done
Evaluating the initial hessian          ...  (Almloef) done
Evaluating the coordinates              ...  done
Calculating the B-matrix                .... done
Calculating the G-matrix                .... done
Diagonalizing the G-matrix              .... done
The first mode is                       ....    0
The number of degrees of freedom        ....    4

    -----------------------------------------------------------------
                    Redundant Internal Coordinates


    -----------------------------------------------------------------
         Definition                    Initial Value    Approx d2E/dq
    -----------------------------------------------------------------
      1. B(Cu  1,Cu  0)                  2.3372         1.971727   
      2. B(Cu  2,Cu  0)                  2.3372         1.971727   
      3. L(Cu  1,Cu  0,Cu  2, 2)       180.0000         1.051601   
      4. L(Cu  1,Cu  0,Cu  2, 1)       180.0000         1.051601   
    -----------------------------------------------------------------

Number of atoms                         .... 3
Number of degrees of freedom            .... 4

         *************************************************************
         *                GEOMETRY OPTIMIZATION CYCLE   1            *
         *************************************************************
---------------------------------
CARTESIAN COORDINATES (ANGSTROEM)
---------------------------------
  Cu     0.000000    0.000000    0.000000
  Cu     0.000000    0.000000    2.337165
  Cu     0.000000    0.000000   -2.337165

----------------------------
CARTESIAN COORDINATES (A.U.)
----------------------------
  NO LB      ZA    FRAG     MASS         X           Y           Z
   0 Cu   29.0000    0    63.550    0.000000    0.000000    0.000000
   1 Cu   29.0000    0    63.550    0.000000    0.000000    4.416602
   2 Cu   29.0000    0    63.550    0.000000    0.000000   -4.416602

--------------------------------
INTERNAL COORDINATES (ANGSTROEM)
--------------------------------
 Cu     0   0   0     0.000000000000     0.00000000     0.00000000
 Cu     1   0   0     2.337165000000     0.00000000     0.00000000
 Cu     1   2   0     2.337165000000   180.00000000     0.00000000

---------------------------
INTERNAL COORDINATES (A.U.)
---------------------------
 Cu     0   0   0     0.000000000000     0.00000000     0.00000000
 Cu     1   0   0     4.416601779786     0.00000000     0.00000000
 Cu     1   2   0     4.416601779786   180.00000000     0.00000000

---------------------
BASIS SET INFORMATION
---------------------
There are 1 groups of distinct atoms

 Group   1 Type Cu  : 17s13p7d2f1g contracted to 6s6p4d2f1g pattern {842111/631111/4111/11/1}

Atom   0Cu   basis set group =>   1
Atom   1Cu   basis set group =>   1
Atom   2Cu   basis set group =>   1
---------------------------------
AUXILIARY/J BASIS SET INFORMATION
---------------------------------
There are 1 groups of distinct atoms

 Group   1 Type Cu  : 19s5p5d3f3g contracted to 8s5p4d3f3g pattern {121111111/11111/2111/111/111}

Atom   0Cu   basis set group =>   1
Atom   1Cu   basis set group =>   1
Atom   2Cu   basis set group =>   1


           ************************************************************
           *        Program running with 24 parallel MPI-processes    *
           *              working on a common directory               *
           ************************************************************
------------------------------------------------------------------------------
                           ORCA GTO INTEGRAL CALCULATION
                           -- RI-GTO INTEGRALS CHOSEN --
------------------------------------------------------------------------------

                         BASIS SET STATISTICS AND STARTUP INFO

Gaussian basis set:
 # of primitive gaussian shells          ...  120
 # of primitive gaussian functions       ...  342
 # of contracted shells                  ...   57
 # of contracted basis functions         ...  201
 Highest angular momentum                ...    4
 Maximum contraction depth               ...    8
Auxiliary gaussian basis set:
 # of primitive gaussian shells          ...  105
 # of primitive gaussian functions       ...  321
 # of contracted shells                  ...   69
 # of contracted aux-basis functions     ...  273
 Highest angular momentum                ...    4
 Maximum contraction depth               ...   12
Ratio of auxiliary to basis functions    ...  1.36
Integral package used                  ... LIBINT
 One Electron integrals                  ... done
 Ordering auxiliary basis shells         ... done
 Integral threshhold             Thresh  ...  2.500e-11
 Primitive cut-off               TCut    ...  2.500e-12
 Pre-screening matrix                    ... done
 Shell pair data                         ... 
 Ordering of the shell pairs             ... done (   0.000 sec) 1432 of 1653 pairs
 Determination of significant pairs      ... done (   0.000 sec)
 Creation of shell pair data             ... done (   0.000 sec)
 Storage of shell pair data              ... done (   0.018 sec)
 Shell pair data done in (   0.018 sec)
 Computing two index integrals           ... done
 Cholesky decomposition of the V-matrix  ... done


Timings:
 Total evaluation time                   ...   0.337 sec (  0.006 min)
 One electron matrix time                ...   0.024 sec (  0.000 min) =  7.3%
 Schwartz matrix evaluation time         ...   0.179 sec (  0.003 min) = 53.3%
 Two index repulsion integral time       ...   0.001 sec (  0.000 min) =  0.4%
 Cholesky decomposition of V             ...   0.082 sec (  0.001 min) = 24.2%
 Three index repulsion integral time     ...   0.000 sec (  0.000 min) =  0.0%



           ************************************************************
           *        Program running with 24 parallel MPI-processes    *
           *              working on a common directory               *
           ************************************************************
-------------------------------------------------------------------------------
                                 ORCA SCF
-------------------------------------------------------------------------------

------------
SCF SETTINGS
------------
Hamiltonian:
 Density Functional     Method          .... DFT(GTOs)
 Exchange Functional    Exchange        .... TPSS
 Correlation Functional Correlation     .... TPSS
 LDA part of GGA corr.  LDAOpt          .... PW91-LDA
 Gradients option       PostSCFGGA      .... off
   Density functional embedding theory  .... OFF
   NL short-range parameter             ....  5.000000
 RI-approximation to the Coulomb term is turned on
   Number of auxiliary basis functions  .... 273


General Settings:
 Integral files         IntName         .... Cu03C1_LIN
 Hartree-Fock type      HFTyp           .... RHF
 Total Charge           Charge          ....    1
 Multiplicity           Mult            ....    1
 Number of Electrons    NEL             ....   86
 Basis Dimension        Dim             ....  201
 Nuclear Repulsion      ENuc            ....    476.0447295979 Eh

Convergence Acceleration:
 DIIS                   CNVDIIS         .... on
   Start iteration      DIISMaxIt       ....    12
   Startup error        DIISStart       ....  0.200000
   # of expansion vecs  DIISMaxEq       ....     5
   Bias factor          DIISBfac        ....   1.050
   Max. coefficient     DIISMaxC        ....  10.000
 Newton-Raphson         CNVNR           .... off
 SOSCF                  CNVSOSCF        .... off
 Level Shifting         CNVShift        .... on
   Level shift para.    LevelShift      ....    0.2500
   Turn off err/grad.   ShiftErr        ....    0.0010
 Zerner damping         CNVZerner       .... off
 Static damping         CNVDamp         .... on
   Fraction old density DampFac         ....    0.7000
   Max. Damping (<1)    DampMax         ....    0.9800
   Min. Damping (>=0)   DampMin         ....    0.0000
   Turn off err/grad.   DampErr         ....    0.1000
 Fernandez-Rico         CNVRico         .... off

SCF Procedure:
 Maximum # iterations   MaxIter         ....   125
 SCF integral mode      SCFMode         .... Direct
   Integral package                     .... LIBINT
 Reset frequency        DirectResetFreq ....    20
 Integral Threshold     Thresh          ....  2.500e-11 Eh
 Primitive CutOff       TCut            ....  2.500e-12 Eh

Convergence Tolerance:
 Convergence Check Mode ConvCheckMode   .... Total+1el-Energy
 Convergence forced     ConvForced      .... 0
 Energy Change          TolE            ....  1.000e-08 Eh
 1-El. energy change                    ....  1.000e-05 Eh
 DIIS Error             TolErr          ....  5.000e-07


Diagonalization of the overlap matrix:
Smallest eigenvalue                        ... 3.551e-04
Time for diagonalization                   ...    0.009 sec
Threshold for overlap eigenvalues          ... 1.000e-08
Number of eigenvalues below threshold      ... 0
Time for construction of square roots      ...    0.005 sec
Total time needed                          ...    0.014 sec

-------------------
DFT GRID GENERATION
-------------------

General Integration Accuracy     IntAcc      ...  4.670
Radial Grid Type                 RadialGrid  ... Gauss-Chebyshev
Angular Grid (max. acc.)         AngularGrid ... Lebedev-302
Angular grid pruning method      GridPruning ... 3 (G Style)
Weight generation scheme         WeightScheme... Becke
Basis function cutoff            BFCut       ...    1.0000e-11
Integration weight cutoff        WCut        ...    1.0000e-14
Grids for H and He will be reduced by one unit

# of grid points (after initial pruning)     ...  28668 (   0.0 sec)
# of grid points (after weights+screening)   ...  28508 (   0.0 sec)
nearest neighbour list constructed           ...    0.0 sec
Grid point re-assignment to atoms done       ...    0.0 sec
Grid point division into batches done        ...    0.2 sec
Reduced shell lists constructed in    0.2 sec

Total number of grid points                  ...    28508
Total number of batches                      ...      447
Average number of points per batch           ...       63
Average number of grid points per atom       ...     9503
Average number of shells per batch           ...    19.10 (33.51%)
Average number of basis functions per batch  ...    56.10 (27.91%)
Average number of large shells per batch     ...    16.15 (84.55%)
Average number of large basis fcns per batch ...    46.85 (83.51%)
Maximum spatial batch extension              ...  26.18, 26.18,  4.39 au
Average spatial batch extension              ...   0.42,  0.42,  0.18 au

Time for grid setup =    0.275 sec

------------------------------
INITIAL GUESS: MODEL POTENTIAL
------------------------------
Loading Hartree-Fock densities                     ... done
Calculating cut-offs                               ... done
Setting up the integral package                    ... done
Initializing the effective Hamiltonian             ... done
Starting the Coulomb interaction                   ... done (   0.0 sec)
Reading the grid                                   ... done
Mapping shells                                     ... done
Starting the XC term evaluation                    ... done (   0.0 sec)
  promolecular density results
     # of electrons  =     87.000081437
     EX              =   -196.428260667
     EC              =     -4.044741474
     EX+EC           =   -200.473002141
Transforming the Hamiltonian                       ... done (   0.0 sec)
Diagonalizing the Hamiltonian                      ... done (   0.0 sec)
Back transforming the eigenvectors                 ... done (   0.0 sec)
Now organizing SCF variables                       ... done
                      ------------------
                      INITIAL GUESS DONE (   0.4 sec)
                      ------------------
--------------
SCF ITERATIONS
--------------
ITER       Energy         Delta-E        Max-DP      RMS-DP      [F,P]     Damp
               ***  Starting incremental Fock matrix formation  ***
  0  -4921.3185916285   0.000000000000 0.11746532  0.00160161  0.1992517 0.7000
  1  -4921.3543109181  -0.035719289541 0.07570976  0.00075938  0.0564563 0.7000
                               ***Turning on DIIS***
  2  -4921.3676007703  -0.013289852173 0.14151773  0.00140819  0.0461057 0.0000
  3  -4921.3969062352  -0.029305464954 0.01699167  0.00037319  0.0971635 0.0000
  4  -4921.4052231661  -0.008316930847 0.01540868  0.00016516  0.0109065 0.0000
  5  -4921.4055369650  -0.000313798901 0.00444775  0.00006657  0.0113059 0.0000
  6  -4921.4056695270  -0.000132562056 0.00207815  0.00003363  0.0024436 0.0000
  7  -4921.4056794125  -0.000009885523 0.00224420  0.00003965  0.0004524 0.0000
  8  -4921.4056811164  -0.000001703856 0.00027389  0.00000500  0.0005414 0.0000
  9  -4921.4056815689  -0.000000452544 0.00023549  0.00000260  0.0000754 0.0000
 10  -4921.4056815787  -0.000000009802 0.00011582  0.00000107  0.0000367 0.0000
 11  -4921.4056815715   0.000000007201 0.00002315  0.00000020  0.0000073 0.0000
 12  -4921.4056815925  -0.000000020929 0.00000406  0.00000006  0.0000029 0.0000
 13  -4921.4056815642   0.000000028281 0.00000744  0.00000012  0.0000024 0.0000
 14  -4921.4056815732  -0.000000009025 0.00000602  0.00000006  0.0000024 0.0000
                 **** Energy Check signals convergence ****

               *****************************************************
               *                     SUCCESS                       *
               *           SCF CONVERGED AFTER  15 CYCLES          *
               *****************************************************


----------------
TOTAL SCF ENERGY
----------------

Total Energy       :        -4921.40568157 Eh         -133918.25687 eV

Components:
Nuclear Repulsion  :          476.04472960 Eh           12953.83565 eV
Electronic Energy  :        -5397.45041117 Eh         -146872.09252 eV
One Electron Energy:        -7794.83407828 Eh         -212108.21864 eV
Two Electron Energy:         2397.38366711 Eh           65236.12612 eV

Virial components:
Potential Energy   :        -9834.54245382 Eh         -267611.50527 eV
Kinetic Energy     :         4913.13677225 Eh          133693.24841 eV
Virial Ratio       :            2.00168302


DFT components:
N(Alpha)           :       42.999995569917 electrons
N(Beta)            :       42.999995569917 electrons
N(Total)           :       85.999991139834 electrons
E(X)               :     -197.355249248207 Eh       
E(C)               :       -4.054456369485 Eh       
E(XC)              :     -201.409705617691 Eh       
DFET-embed. en.    :        0.000000000000 Eh       

---------------
SCF CONVERGENCE
---------------

  Last Energy change         ...    3.1923e-09  Tolerance :   1.0000e-08
  Last MAX-Density change    ...    9.9090e-06  Tolerance :   1.0000e-07
  Last RMS-Density change    ...    1.3255e-07  Tolerance :   5.0000e-09
  Last DIIS Error            ...    1.3110e-07  Tolerance :   5.0000e-07

             **** THE GBW FILE WAS UPDATED (Cu03C1_LIN.gbw) ****
             **** DENSITY FILE WAS UPDATED (Cu03C1_LIN.scfp) ****
             **** ENERGY FILE WAS UPDATED (Cu03C1_LIN.en.tmp) ****
             **** THE GBW FILE WAS UPDATED (Cu03C1_LIN.gbw) ****
             **** DENSITY FILE WAS UPDATED (Cu03C1_LIN.scfp) ****
----------------
ORBITAL ENERGIES
----------------

  NO   OCC          E(Eh)            E(eV) 
   0   2.0000    -322.300069     -8770.2308 
   1   2.0000    -322.300066     -8770.2307 
   2   2.0000    -322.265953     -8769.3024 
   3   2.0000     -38.584314     -1049.9326 
   4   2.0000     -38.584293     -1049.9320 
   5   2.0000     -38.557826     -1049.2118 
   6   2.0000     -33.804165      -919.8581 
   7   2.0000     -33.804162      -919.8580 
   8   2.0000     -33.803389      -919.8370 
   9   2.0000     -33.803389      -919.8370 
  10   2.0000     -33.803386      -919.8369 
  11   2.0000     -33.803386      -919.8369 
  12   2.0000     -33.776815      -919.1139 
  13   2.0000     -33.776586      -919.1076 
  14   2.0000     -33.776586      -919.1076 
  15   2.0000      -4.346343      -118.2700 
  16   2.0000      -4.346324      -118.2695 
  17   2.0000      -4.315427      -117.4287 
  18   2.0000      -2.862102       -77.8818 
  19   2.0000      -2.861951       -77.8776 
  20   2.0000      -2.857074       -77.7449 
  21   2.0000      -2.857074       -77.7449 
  22   2.0000      -2.857074       -77.7449 
  23   2.0000      -2.857074       -77.7449 
  24   2.0000      -2.831858       -77.0588 
  25   2.0000      -2.824436       -76.8568 
  26   2.0000      -2.824436       -76.8568 
  27   2.0000      -0.451425       -12.2839 
  28   2.0000      -0.420000       -11.4288 
  29   2.0000      -0.420000       -11.4288 
  30   2.0000      -0.415647       -11.3103 
  31   2.0000      -0.411696       -11.2028 
  32   2.0000      -0.411696       -11.2028 
  33   2.0000      -0.405817       -11.0428 
  34   2.0000      -0.405808       -11.0426 
  35   2.0000      -0.405258       -11.0276 
  36   2.0000      -0.405248       -11.0274 
  37   2.0000      -0.389954       -10.6112 
  38   2.0000      -0.371457       -10.1079 
  39   2.0000      -0.371457       -10.1079 
  40   2.0000      -0.370461       -10.0808 
  41   2.0000      -0.370447       -10.0804 
  42   2.0000      -0.364193        -9.9102 
  43   0.0000      -0.352927        -9.6036 
  44   0.0000      -0.252807        -6.8792 
  45   0.0000      -0.211547        -5.7565 
  46   0.0000      -0.211547        -5.7565 
  47   0.0000      -0.184262        -5.0140 
  48   0.0000      -0.161029        -4.3818 
  49   0.0000      -0.161029        -4.3818 
  50   0.0000      -0.083566        -2.2739 
  51   0.0000      -0.083566        -2.2739 
  52   0.0000      -0.074978        -2.0403 
  53   0.0000      -0.057643        -1.5686 
  54   0.0000      -0.057150        -1.5551 
  55   0.0000      -0.029952        -0.8150 
  56   0.0000      -0.029952        -0.8150 
  57   0.0000      -0.014014        -0.3813 
  58   0.0000      -0.007023        -0.1911 
  59   0.0000      -0.007022        -0.1911 
  60   0.0000      -0.004487        -0.1221 
  61   0.0000      -0.004487        -0.1221 
  62   0.0000       0.026686         0.7261 
  63   0.0000       0.033443         0.9100 
  64   0.0000       0.033443         0.9100 
  65   0.0000       0.042000         1.1429 
  66   0.0000       0.042000         1.1429 
  67   0.0000       0.059886         1.6296 
  68   0.0000       0.065664         1.7868 
  69   0.0000       0.065664         1.7868 
  70   0.0000       0.099499         2.7075 
  71   0.0000       0.118925         3.2361 
  72   0.0000       0.118925         3.2361 
  73   0.0000       0.135694         3.6924 
  74   0.0000       0.171559         4.6684 
  75   0.0000       0.171559         4.6684 
  76   0.0000       0.192641         5.2420 
  77   0.0000       0.274453         7.4682 
  78   0.0000       0.274453         7.4682 
  79   0.0000       0.305907         8.3241 
  80   0.0000       0.350692         9.5428 
  81   0.0000       0.409569        11.1449 
  82   0.0000       0.460740        12.5374 
  83   0.0000       0.460740        12.5374 
  84   0.0000       0.479323        13.0430 
  85   0.0000       0.479323        13.0431 
  86   0.0000       0.540091        14.6966 
  87   0.0000       0.540091        14.6966 
  88   0.0000       0.559570        15.2267 
  89   0.0000       0.644573        17.5397 
  90   0.0000       0.644573        17.5397 
  91   0.0000       0.677225        18.4282 
  92   0.0000       0.677225        18.4282 
  93   0.0000       0.681884        18.5550 
  94   0.0000       0.681886        18.5551 
  95   0.0000       0.687154        18.6984 
  96   0.0000       0.720473        19.6051 
  97   0.0000       0.734621        19.9900 
  98   0.0000       0.734621        19.9900 
  99   0.0000       0.750423        20.4200 
 100   0.0000       0.750427        20.4202 
 101   0.0000       0.927313        25.2335 
 102   0.0000       0.927313        25.2335 
 103   0.0000       0.949942        25.8492 
 104   0.0000       1.230674        33.4883 
 105   0.0000       2.666426        72.5571 
 106   0.0000       2.698390        73.4269 
 107   0.0000       2.698390        73.4269 
 108   0.0000       2.786459        75.8234 
 109   0.0000       2.786459        75.8234 
 110   0.0000       2.806437        76.3670 
 111   0.0000       2.827929        76.9518 
 112   0.0000       2.827929        76.9518 
 113   0.0000       2.830769        77.0291 
 114   0.0000       2.935530        79.8798 
 115   0.0000       3.063968        83.3748 
 116   0.0000       3.099750        84.3485 
 117   0.0000       3.143271        85.5327 
 118   0.0000       3.143271        85.5327 
 119   0.0000       3.149458        85.7011 
 120   0.0000       3.149458        85.7011 
 121   0.0000       3.152672        85.7886 
 122   0.0000       3.152673        85.7886 
 123   0.0000       3.153328        85.8064 
 124   0.0000       3.153329        85.8064 
 125   0.0000       3.154594        85.8409 
 126   0.0000       3.154594        85.8409 
 127   0.0000       3.154595        85.8409 
 128   0.0000       3.154595        85.8409 
 129   0.0000       3.191694        86.8504 
 130   0.0000       3.191694        86.8504 
 131   0.0000       3.197634        87.0120 
 132   0.0000       3.197648        87.0124 
 133   0.0000       3.204657        87.2032 
 134   0.0000       3.204657        87.2032 
 135   0.0000       3.216342        87.5211 
 136   0.0000       3.276917        89.1694 
 137   0.0000       3.364103        91.5419 
 138   0.0000       3.364159        91.5434 
 139   0.0000       3.382170        92.0335 
 140   0.0000       3.382220        92.0349 
 141   0.0000       3.417047        92.9826 
 142   0.0000       3.417047        92.9826 
 143   0.0000       3.446104        93.7732 
 144   0.0000       3.446169        93.7750 
 145   0.0000       3.460384        94.1618 
 146   0.0000       3.487997        94.9132 
 147   0.0000       3.487997        94.9132 
 148   0.0000       3.595016        97.8253 
 149   0.0000       3.595016        97.8253 
 150   0.0000       3.702388       100.7471 
 151   0.0000       3.799944       103.4017 
 152   0.0000       4.144511       112.7779 
 153   0.0000      12.693214       345.3999 
 154   0.0000      12.693214       345.3999 
 155   0.0000      12.693837       345.4169 
 156   0.0000      12.693837       345.4169 
 157   0.0000      12.694082       345.4235 
 158   0.0000      12.694124       345.4247 
 159   0.0000      12.694236       345.4277 
 160   0.0000      12.694511       345.4352 
 161   0.0000      12.695124       345.4519 
 162   0.0000      12.695168       345.4531 
 163   0.0000      12.696547       345.4906 
 164   0.0000      12.696547       345.4906 
 165   0.0000      12.696556       345.4908 
 166   0.0000      12.696556       345.4908 
 167   0.0000      12.698026       345.5308 
 168   0.0000      12.698026       345.5308 
 169   0.0000      12.698212       345.5359 
 170   0.0000      12.698212       345.5359 
 171   0.0000      12.727880       346.3432 
 172   0.0000      12.727880       346.3432 
 173   0.0000      12.728577       346.3622 
 174   0.0000      12.730230       346.4072 
 175   0.0000      12.730420       346.4123 
 176   0.0000      12.732787       346.4767 
 177   0.0000      12.732787       346.4767 
 178   0.0000      12.736893       346.5885 
 179   0.0000      12.737147       346.5954 
 180   0.0000      12.785836       347.9203 
 181   0.0000      12.785836       347.9203 
 182   0.0000      12.786462       347.9373 
 183   0.0000      12.786634       347.9420 
 184   0.0000      12.787334       347.9610 
 185   0.0000      12.787505       347.9657 
 186   0.0000      12.789563       348.0217 
 187   0.0000      12.789563       348.0217 
 188   0.0000      12.789563       348.0217 
 189   0.0000      12.789563       348.0217 
 190   0.0000      12.798023       348.2519 
 191   0.0000      12.798023       348.2519 
 192   0.0000      12.798272       348.2587 
 193   0.0000      12.816633       348.7583 
 194   0.0000      12.816847       348.7641 
 195   0.0000      12.819809       348.8447 
 196   0.0000      12.819809       348.8447 
 197   0.0000      12.828078       349.0698 
 198   0.0000      12.828078       349.0698 
 199   0.0000      12.865797       350.0961 
 200   0.0000      12.910323       351.3078 

                    ********************************
                    * MULLIKEN POPULATION ANALYSIS *
                    ********************************

-----------------------
MULLIKEN ATOMIC CHARGES
-----------------------
   0 Cu:   -0.277536
   1 Cu:    0.638764
   2 Cu:    0.638772
Sum of atomic charges:    1.0000000

--------------------------------
MULLIKEN REDUCED ORBITAL CHARGES
--------------------------------
  0 Cus       :     7.331832  s :     7.331832
      pz      :     3.981179  p :    12.019017
      px      :     4.018919
      py      :     4.018919
      dz2     :     1.976892  d :     9.926448
      dxz     :     1.974761
      dyz     :     1.974761
      dx2y2   :     2.000017
      dxy     :     2.000017
      f0      :     0.000092  f :     0.000238
      f+1     :     0.000066
      f-1     :     0.000066
      f+2     :     0.000007
      f-2     :     0.000007
      f+3     :     0.000000
      f-3     :     0.000000
      g0      :     0.000000  g :     0.000002
      g+1     :     0.000000
      g-1     :     0.000000
      g+2     :     0.000000
      g-2     :     0.000000
      g+3     :     0.000000
      g-3     :     0.000000
      g+4     :     0.000000
      g-4     :     0.000000
  1 Cus       :     6.411705  s :     6.411705
      pz      :     3.998330  p :    12.024799
      px      :     4.013235
      py      :     4.013235
      dz2     :     1.944930  d :     9.924592
      dxz     :     1.989852
      dyz     :     1.989852
      dx2y2   :     1.999979
      dxy     :     1.999979
      f0      :     0.000042  f :     0.000140
      f+1     :     0.000040
      f-1     :     0.000040
      f+2     :     0.000009
      f-2     :     0.000009
      f+3     :     0.000000
      f-3     :     0.000000
      g0      :     0.000000  g :     0.000001
      g+1     :     0.000000
      g-1     :     0.000000
      g+2     :     0.000000
      g-2     :     0.000000
      g+3     :     0.000000
      g-3     :     0.000000
      g+4     :     0.000000
      g-4     :     0.000000
  2 Cus       :     6.411698  s :     6.411698
      pz      :     3.998328  p :    12.024797
      px      :     4.013235
      py      :     4.013235
      dz2     :     1.944930  d :     9.924592
      dxz     :     1.989852
      dyz     :     1.989852
      dx2y2   :     1.999979
      dxy     :     1.999979
      f0      :     0.000042  f :     0.000140
      f+1     :     0.000040
      f-1     :     0.000040
      f+2     :     0.000009
      f-2     :     0.000009
      f+3     :     0.000000
      f-3     :     0.000000
      g0      :     0.000000  g :     0.000001
      g+1     :     0.000000
      g-1     :     0.000000
      g+2     :     0.000000
      g-2     :     0.000000
      g+3     :     0.000000
      g-3     :     0.000000
      g+4     :     0.000000
      g-4     :     0.000000


                     *******************************
                     * LOEWDIN POPULATION ANALYSIS *
                     *******************************

----------------------
LOEWDIN ATOMIC CHARGES
----------------------
   0 Cu:    0.120332
   1 Cu:    0.439834
   2 Cu:    0.439834

-------------------------------
LOEWDIN REDUCED ORBITAL CHARGES
-------------------------------
  0 Cus       :     6.731415  s :     6.731415
      pz      :     4.073814  p :    12.109725
      px      :     4.017956
      py      :     4.017956
      dz2     :     2.094409  d :    10.037923
      dxz     :     1.972284
      dyz     :     1.972284
      dx2y2   :     1.999473
      dxy     :     1.999473
      f0      :     0.000316  f :     0.000602
      f+1     :     0.000134
      f-1     :     0.000134
      f+2     :     0.000009
      f-2     :     0.000009
      f+3     :     0.000000
      f-3     :     0.000000
      g0      :     0.000001  g :     0.000002
      g+1     :     0.000001
      g-1     :     0.000001
      g+2     :     0.000000
      g-2     :     0.000000
      g+3     :     0.000000
      g-3     :     0.000000
      g+4     :     0.000000
      g-4     :     0.000000
  1 Cus       :     6.421755  s :     6.421755
      pz      :     4.131902  p :    12.160447
      px      :     4.014272
      py      :     4.014272
      dz2     :     1.996236  d :     9.977653
      dxz     :     1.990460
      dyz     :     1.990460
      dx2y2   :     2.000249
      dxy     :     2.000249
      f0      :     0.000129  f :     0.000310
      f+1     :     0.000080
      f-1     :     0.000080
      f+2     :     0.000010
      f-2     :     0.000010
      f+3     :     0.000000
      f-3     :     0.000000
      g0      :     0.000000  g :     0.000001
      g+1     :     0.000000
      g-1     :     0.000000
      g+2     :     0.000000
      g-2     :     0.000000
      g+3     :     0.000000
      g-3     :     0.000000
      g+4     :     0.000000
      g-4     :     0.000000
  2 Cus       :     6.421754  s :     6.421754
      pz      :     4.131902  p :    12.160447
      px      :     4.014272
      py      :     4.014272
      dz2     :     1.996236  d :     9.977653
      dxz     :     1.990460
      dyz     :     1.990460
      dx2y2   :     2.000249
      dxy     :     2.000249
      f0      :     0.000129  f :     0.000310
      f+1     :     0.000080
      f-1     :     0.000080
      f+2     :     0.000010
      f-2     :     0.000010
      f+3     :     0.000000
      f-3     :     0.000000
      g0      :     0.000000  g :     0.000001
      g+1     :     0.000000
      g-1     :     0.000000
      g+2     :     0.000000
      g-2     :     0.000000
      g+3     :     0.000000
      g-3     :     0.000000
      g+4     :     0.000000
      g-4     :     0.000000


                      *****************************
                      * MAYER POPULATION ANALYSIS *
                      *****************************

  NA   - Mulliken gross atomic population
  ZA   - Total nuclear charge
  QA   - Mulliken gross atomic charge
  VA   - Mayer's total valence
  BVA  - Mayer's bonded valence
  FA   - Mayer's free valence

  ATOM       NA         ZA         QA         VA         BVA        FA
  0 Cu    29.2775    29.0000    -0.2775     1.0128     1.0128    -0.0000
  1 Cu    28.3612    29.0000     0.6388     0.8017     0.8017    -0.0000
  2 Cu    28.3612    29.0000     0.6388     0.8016     0.8016    -0.0000

  Mayer bond orders larger than 0.100000
B(  0-Cu,  1-Cu) :   0.5064 B(  0-Cu,  2-Cu) :   0.5064 B(  1-Cu,  2-Cu) :   0.2953 


-------
TIMINGS
-------

Total SCF time: 0 days 0 hours 0 min 2 sec 

Total time                  ....       2.819 sec
Sum of individual times     ....       2.678 sec  ( 95.0%)

Fock matrix formation       ....       2.147 sec  ( 76.2%)
  Split-RI-J                ....       1.373 sec  ( 64.0% of F)
  XC integration            ....       0.714 sec  ( 33.2% of F)
    Basis function eval.    ....       0.054 sec  (  7.5% of XC)
    Density eval.           ....       0.074 sec  ( 10.4% of XC)
    XC-Functional eval.     ....       0.036 sec  (  5.0% of XC)
    XC-Potential eval.      ....       0.148 sec  ( 20.7% of XC)
Diagonalization             ....       0.093 sec  (  3.3%)
Density matrix formation    ....       0.012 sec  (  0.4%)
Population analysis         ....       0.006 sec  (  0.2%)
Initial guess               ....       0.099 sec  (  3.5%)
Orbital Transformation      ....       0.000 sec  (  0.0%)
Orbital Orthonormalization  ....       0.000 sec  (  0.0%)
DIIS solution               ....       0.046 sec  (  1.6%)
Grid generation             ....       0.275 sec  (  9.8%)


-------------------------------------------------------------------------------
                          DFT DISPERSION CORRECTION                            
                                                                               
                              DFTD3 V3.1  Rev 1                                
                          USING Becke-Johnson damping                          
-------------------------------------------------------------------------------
The TPSS functional is recognized
Active option DFTDOPT                   ...         4   

molecular C6(AA) [au] = 1599.926199 


            DFT-D V3
 parameters
 s6 scaling factor         :     1.0000 
 a1 scaling factor         :     0.4535 
 s8 scaling factor         :     1.9435 
 a2 scaling factor         :     4.4752 
 ad hoc parameters k1-k3   :    16.0000     1.3333    -4.0000 

 Edisp/kcal,au: -2.143700538796  -0.003416203896 
 E6   /kcal   :  -0.675435120 
 E8   /kcal   :  -1.468265418 
 % E8         :  68.492095410 

-------------------------   ----------------
Dispersion correction           -0.003416204
-------------------------   ----------------


-------------------------   --------------------
FINAL SINGLE POINT ENERGY     -4921.409097773909
-------------------------   --------------------



           ************************************************************
           *        Program running with 24 parallel MPI-processes    *
           *              working on a common directory               *
           ************************************************************
------------------------------------------------------------------------------
                         ORCA SCF GRADIENT CALCULATION
------------------------------------------------------------------------------

Gradient of the Kohn-Sham DFT energy:
Kohn-Sham wavefunction type      ... RKS
Hartree-Fock exchange scaling    ...    0.000
Number of operators              ...    1
Number of atoms                  ...    3
Basis set dimensions             ...  201
Integral neglect threshold       ... 2.5e-11
Integral primitive cutoff        ... 2.5e-12

Nuclear repulsion gradient       ... done
One Electron Gradient            ... done
Pre-screening matrix             ... done
RI-J gradient                    ... done
Exchange-correlation gradient    ... done
Dispersion correction            ... done

------------------
CARTESIAN GRADIENT
------------------

   1   Cu  :   -0.000000017   -0.000000020   -0.000000029
   2   Cu  :   -0.000000022   -0.000000001    0.000646987
   3   Cu  :   -0.000000012   -0.000000010   -0.000646973

Difference to translation invariance:
           :   -0.0000000504   -0.0000000314   -0.0000000153

Norm of the cartesian gradient     ...    0.0009149677
RMS gradient                       ...    0.0003049892
MAX gradient                       ...    0.0006469866

-------
TIMINGS
-------

Total SCF gradient time            ...        0.560 sec

One electron gradient       ....       0.005 sec  (  0.9%)
Prescreening matrices       ....       0.134 sec  ( 24.0%)
RI-J Coulomb gradient       ....       0.160 sec  ( 28.5%)
XC gradient                 ....       0.039 sec  (  7.0%)
------------------------------------------------------------------------------
                         ORCA GEOMETRY RELAXATION STEP
------------------------------------------------------------------------------

Reading the OPT-File                    .... done
Getting information on internals        .... done
Copying old internal coords+grads       .... done
Making the new internal coordinates     .... (new redundants).... done
Validating the new internal coordinates .... (new redundants).... done
Calculating the B-matrix                .... done
Calculating the G,G- and P matrices     .... done
Transforming gradient to internals      .... done
Projecting the internal gradient        .... done
Number of atoms                         ....   3
Number of internal coordinates          ....   4
Current Energy                          .... -4921.409097774 Eh
Current gradient norm                   ....     0.000914968 Eh/bohr
Maximum allowed component of the step   ....  0.300
Current trust radius                    ....  0.300
Evaluating the initial hessian          ....  (Almloef) done
Projecting the Hessian                  .... done
Forming the augmented Hessian           .... done
Diagonalizing the augmented Hessian     .... done
Last element of RFO vector              ....  0.999999892
Lowest eigenvalues of augmented Hessian:
 -0.000000425  1.051601113  1.051601113  1.971727228
Length of the computed step             ....  0.000464044
The final length of the internal step   ....  0.000464044
Converting the step to cartesian space:
 Initial RMS(Int)=    0.0002320218
Transforming coordinates:
 Iter   0:  RMS(Cart)=    0.0001546812 RMS(Int)=    0.0002320218
 Iter   1:  RMS(Cart)=    0.0000000036 RMS(Int)=    0.0000000149
done
Storing new coordinates                 .... done

                                .--------------------.
          ----------------------|Geometry convergence|-------------------------
          Item                value                   Tolerance       Converged
          ---------------------------------------------------------------------
          RMS gradient        0.0004574839            0.0001000000      NO
          MAX gradient        0.0006469917            0.0003000000      NO
          RMS step            0.0002320218            0.0020000000      YES
          MAX step            0.0003281344            0.0040000000      YES
          ........................................................
          Max(Bonds)      0.0002      Max(Angles)    0.00
          Max(Dihed)        0.00      Max(Improp)    0.00
          ---------------------------------------------------------------------

The optimization has not yet converged - more geometry cycles are needed


    ---------------------------------------------------------------------------
                         Redundant Internal Coordinates
                            (Angstroem and degrees)

        Definition                    Value    dE/dq     Step     New-Value
    ----------------------------------------------------------------------------
     1. B(Cu  1,Cu  0)                2.3372  0.000647 -0.0002    2.3370   
     2. B(Cu  2,Cu  0)                2.3372  0.000647 -0.0002    2.3370   
     3. L(Cu  1,Cu  0,Cu  2, 2)       180.00 -0.000000    0.00    180.00   
     4. L(Cu  1,Cu  0,Cu  2, 1)       180.00 -0.000000    0.00    180.00   
    ----------------------------------------------------------------------------

         *************************************************************
         *                GEOMETRY OPTIMIZATION CYCLE   2            *
         *************************************************************
---------------------------------
CARTESIAN COORDINATES (ANGSTROEM)
---------------------------------
  Cu     0.000000   -0.000000    0.000000
  Cu    -0.000000    0.000000    2.336991
  Cu    -0.000000    0.000000   -2.336991

----------------------------
CARTESIAN COORDINATES (A.U.)
----------------------------
  NO LB      ZA    FRAG     MASS         X           Y           Z
   0 Cu   29.0000    0    63.550    0.000000   -0.000000    0.000000
   1 Cu   29.0000    0    63.550   -0.000000    0.000000    4.416274
   2 Cu   29.0000    0    63.550   -0.000000    0.000000   -4.416274

--------------------------------
INTERNAL COORDINATES (ANGSTROEM)
--------------------------------
 Cu     0   0   0     0.000000000000     0.00000000     0.00000000
 Cu     1   0   0     2.336991358756     0.00000000     0.00000000
 Cu     1   2   0     2.336991365081   179.99999879     0.00000000

---------------------------
INTERNAL COORDINATES (A.U.)
---------------------------
 Cu     0   0   0     0.000000000000     0.00000000     0.00000000
 Cu     1   0   0     4.416273645390     0.00000000     0.00000000
 Cu     1   2   0     4.416273657341   179.99999879     0.00000000



           ************************************************************
           *        Program running with 24 parallel MPI-processes    *
           *              working on a common directory               *
           ************************************************************
 One Electron integrals                  ... done
 Pre-screening matrix                    ... done


           ************************************************************
           *        Program running with 24 parallel MPI-processes    *
           *              working on a common directory               *
           ************************************************************

Diagonalization of the overlap matrix:
Smallest eigenvalue                        ... 3.551e-04
Time for diagonalization                   ...    0.009 sec
Threshold for overlap eigenvalues          ... 1.000e-08
Number of eigenvalues below threshold      ... 0
Time for construction of square roots      ...    0.005 sec
Total time needed                          ...    0.014 sec

-------------------
DFT GRID GENERATION
-------------------

General Integration Accuracy     IntAcc      ...  4.670
Radial Grid Type                 RadialGrid  ... Gauss-Chebyshev
Angular Grid (max. acc.)         AngularGrid ... Lebedev-302
Angular grid pruning method      GridPruning ... 3 (G Style)
Weight generation scheme         WeightScheme... Becke
Basis function cutoff            BFCut       ...    1.0000e-11
Integration weight cutoff        WCut        ...    1.0000e-14
Grids for H and He will be reduced by one unit

# of grid points (after initial pruning)     ...  28668 (   0.0 sec)
# of grid points (after weights+screening)   ...  28508 (   0.0 sec)
nearest neighbour list constructed           ...    0.0 sec
Grid point re-assignment to atoms done       ...    0.0 sec
Grid point division into batches done        ...    0.2 sec
Reduced shell lists constructed in    0.2 sec

Total number of grid points                  ...    28508
Total number of batches                      ...      447
Average number of points per batch           ...       63
Average number of grid points per atom       ...     9503
Average number of shells per batch           ...    19.10 (33.51%)
Average number of basis functions per batch  ...    56.10 (27.91%)
Average number of large shells per batch     ...    16.15 (84.55%)
Average number of large basis fcns per batch ...    46.85 (83.51%)
Maximum spatial batch extension              ...  26.18, 26.18,  4.39 au
Average spatial batch extension              ...   0.42,  0.42,  0.18 au

Time for grid setup =    0.265 sec

--------------
SCF ITERATIONS
--------------
ITER       Energy         Delta-E        Max-DP      RMS-DP      [F,P]     Damp
               ***  Starting incremental Fock matrix formation  ***
  0  -4921.4056821553   0.000000000000 0.00006411  0.00000099  0.0001089 0.7000
  1  -4921.4056821698  -0.000000014430 0.00006166  0.00000095  0.0000763 0.7000
                               ***Turning on DIIS***
  2  -4921.4056822625  -0.000000092769 0.00017058  0.00000266  0.0000534 0.0000
  3  -4921.4056823767  -0.000000114129 0.00003223  0.00000031  0.0000044 0.0000
  4  -4921.4056823319   0.000000044742 0.00001651  0.00000015  0.0000058 0.0000
  5  -4921.4056823258   0.000000006155 0.00000579  0.00000006  0.0000032 0.0000
  6  -4921.4056823640  -0.000000038235 0.00000605  0.00000008  0.0000012 0.0000
  7  -4921.4056823746  -0.000000010605 0.00000347  0.00000006  0.0000014 0.0000
                 **** Energy Check signals convergence ****

               *****************************************************
               *                     SUCCESS                       *
               *           SCF CONVERGED AFTER   8 CYCLES          *
               *****************************************************

Total Energy       :        -4921.40568237 Eh         -133918.25689 eV
  Last Energy change         ...    8.8321e-09  Tolerance :   1.0000e-08
  Last MAX-Density change    ...    1.1684e-05  Tolerance :   1.0000e-07
             **** THE GBW FILE WAS UPDATED (Cu03C1_LIN.gbw) ****
             **** DENSITY FILE WAS UPDATED (Cu03C1_LIN.scfp) ****
             **** ENERGY FILE WAS UPDATED (Cu03C1_LIN.en.tmp) ****
             **** THE GBW FILE WAS UPDATED (Cu03C1_LIN.gbw) ****
             **** DENSITY FILE WAS UPDATED (Cu03C1_LIN.scfp) ****
Total SCF time: 0 days 0 hours 0 min 1 sec 


-------------------------------------------------------------------------------
                          DFT DISPERSION CORRECTION                            
                                                                               
                              DFTD3 V3.1  Rev 1                                
                          USING Becke-Johnson damping                          
-------------------------------------------------------------------------------
-------------------------   ----------------
Dispersion correction           -0.003416373
-------------------------   ----------------


-------------------------   --------------------
FINAL SINGLE POINT ENERGY     -4921.409098738598
-------------------------   --------------------



           ************************************************************
           *        Program running with 24 parallel MPI-processes    *
           *              working on a common directory               *
           ************************************************************
------------------------------------------------------------------------------
                         ORCA SCF GRADIENT CALCULATION
------------------------------------------------------------------------------

Gradient of the Kohn-Sham DFT energy:
Kohn-Sham wavefunction type      ... RKS
Hartree-Fock exchange scaling    ...    0.000
Number of operators              ...    1
Number of atoms                  ...    3
Basis set dimensions             ...  201
Integral neglect threshold       ... 2.5e-11
Integral primitive cutoff        ... 2.5e-12

Nuclear repulsion gradient       ... done
One Electron Gradient            ... done
Pre-screening matrix             ... done
RI-J gradient                    ... done
Exchange-correlation gradient    ... done
Dispersion correction            ... done

------------------
CARTESIAN GRADIENT
------------------

   1   Cu  :    0.000000005    0.000000003    0.000000075
   2   Cu  :   -0.000000019    0.000000005    0.000630714
   3   Cu  :   -0.000000021    0.000000007   -0.000630704

Difference to translation invariance:
           :   -0.0000000356    0.0000000147    0.0000000847

Norm of the cartesian gradient     ...    0.0008919572
RMS gradient                       ...    0.0002973191
MAX gradient                       ...    0.0006307141

-------
TIMINGS
-------

Total SCF gradient time            ...        0.537 sec

One electron gradient       ....       0.014 sec  (  2.6%)
Prescreening matrices       ....       0.134 sec  ( 25.0%)
RI-J Coulomb gradient       ....       0.124 sec  ( 23.2%)
XC gradient                 ....       0.040 sec  (  7.5%)
------------------------------------------------------------------------------
                         ORCA GEOMETRY RELAXATION STEP
------------------------------------------------------------------------------

Reading the OPT-File                    .... done
Getting information on internals        .... done
Copying old internal coords+grads       .... done
Making the new internal coordinates     .... (new redundants).... done
Validating the new internal coordinates .... (new redundants).... done
Calculating the B-matrix                .... done
Calculating the G,G- and P matrices     .... done
Transforming gradient to internals      .... done
Projecting the internal gradient        .... done
Number of atoms                         ....   3
Number of internal coordinates          ....   4
Current Energy                          .... -4921.409098739 Eh
Current gradient norm                   ....     0.000891957 Eh/bohr
Maximum allowed component of the step   ....  0.300
Current trust radius                    ....  0.300
Updating the Hessian (BFGS)             .... done
Forming the augmented Hessian           .... done
Diagonalizing the augmented Hessian     .... done
Last element of RFO vector              ....  0.999838365
Lowest eigenvalues of augmented Hessian:
 -0.000016039  0.049603068  1.051601113  1.051601121
Length of the computed step             ....  0.017981895
The final length of the internal step   ....  0.017981895
Converting the step to cartesian space:
 Initial RMS(Int)=    0.0089909476
Transforming coordinates:
 Iter   0:  RMS(Cart)=    0.0059939651 RMS(Int)=    0.0089909476
 Iter   1:  RMS(Cart)=    0.0000000351 RMS(Int)=    0.0000000249
done
Storing new coordinates                 .... done

                                .--------------------.
          ----------------------|Geometry convergence|-------------------------
          Item                value                   Tolerance       Converged
          ---------------------------------------------------------------------
          Energy change      -0.0000009647            0.0000050000      YES
          RMS gradient        0.0004459786            0.0001000000      NO
          MAX gradient        0.0006307321            0.0003000000      NO
          RMS step            0.0089909476            0.0020000000      NO
          MAX step            0.0127155866            0.0040000000      NO
          ........................................................
          Max(Bonds)      0.0067      Max(Angles)    0.00
          Max(Dihed)        0.00      Max(Improp)    0.00
          ---------------------------------------------------------------------

The optimization has not yet converged - more geometry cycles are needed


    ---------------------------------------------------------------------------
                         Redundant Internal Coordinates
                            (Angstroem and degrees)

        Definition                    Value    dE/dq     Step     New-Value
    ----------------------------------------------------------------------------
     1. B(Cu  1,Cu  0)                2.3370  0.000631 -0.0067    2.3303   
     2. B(Cu  2,Cu  0)                2.3370  0.000631 -0.0067    2.3303   
     3. L(Cu  1,Cu  0,Cu  2, 2)       180.00 -0.000000    0.00    180.00   
     4. L(Cu  1,Cu  0,Cu  2, 1)       180.00 -0.000000   -0.00    180.00   
    ----------------------------------------------------------------------------

         *************************************************************
         *                GEOMETRY OPTIMIZATION CYCLE   3            *
         *************************************************************
---------------------------------
CARTESIAN COORDINATES (ANGSTROEM)
---------------------------------
  Cu    -0.000000   -0.000000   -0.000000
  Cu     0.000000    0.000000    2.330263
  Cu     0.000000    0.000000   -2.330263

----------------------------
CARTESIAN COORDINATES (A.U.)
----------------------------
  NO LB      ZA    FRAG     MASS         X           Y           Z
   0 Cu   29.0000    0    63.550   -0.000000   -0.000000   -0.000000
   1 Cu   29.0000    0    63.550    0.000000    0.000000    4.403559
   2 Cu   29.0000    0    63.550    0.000000    0.000000   -4.403558

--------------------------------
INTERNAL COORDINATES (ANGSTROEM)
--------------------------------
 Cu     0   0   0     0.000000000000     0.00000000     0.00000000
 Cu     1   0   0     2.330263053926     0.00000000     0.00000000
 Cu     1   2   0     2.330262566477   179.99999246     0.00000000

---------------------------
INTERNAL COORDINATES (A.U.)
---------------------------
 Cu     0   0   0     0.000000000000     0.00000000     0.00000000
 Cu     1   0   0     4.403558991914     0.00000000     0.00000000
 Cu     1   2   0     4.403558070770   179.99999246     0.00000000



           ************************************************************
           *        Program running with 24 parallel MPI-processes    *
           *              working on a common directory               *
           ************************************************************
 One Electron integrals                  ... done
 Pre-screening matrix                    ... done


           ************************************************************
           *        Program running with 24 parallel MPI-processes    *
           *              working on a common directory               *
           ************************************************************

Diagonalization of the overlap matrix:
Smallest eigenvalue                        ... 3.515e-04
Time for diagonalization                   ...    0.010 sec
Threshold for overlap eigenvalues          ... 1.000e-08
Number of eigenvalues below threshold      ... 0
Time for construction of square roots      ...    0.005 sec
Total time needed                          ...    0.015 sec

-------------------
DFT GRID GENERATION
-------------------

General Integration Accuracy     IntAcc      ...  4.670
Radial Grid Type                 RadialGrid  ... Gauss-Chebyshev
Angular Grid (max. acc.)         AngularGrid ... Lebedev-302
Angular grid pruning method      GridPruning ... 3 (G Style)
Weight generation scheme         WeightScheme... Becke
Basis function cutoff            BFCut       ...    1.0000e-11
Integration weight cutoff        WCut        ...    1.0000e-14
Grids for H and He will be reduced by one unit

# of grid points (after initial pruning)     ...  28668 (   0.0 sec)
# of grid points (after weights+screening)   ...  28508 (   0.0 sec)
nearest neighbour list constructed           ...    0.0 sec
Grid point re-assignment to atoms done       ...    0.0 sec
Grid point division into batches done        ...    0.2 sec
Reduced shell lists constructed in    0.2 sec

Total number of grid points                  ...    28508
Total number of batches                      ...      447
Average number of points per batch           ...       63
Average number of grid points per atom       ...     9503
Average number of shells per batch           ...    19.10 (33.51%)
Average number of basis functions per batch  ...    56.10 (27.91%)
Average number of large shells per batch     ...    16.15 (84.55%)
Average number of large basis fcns per batch ...    46.85 (83.51%)
Maximum spatial batch extension              ...  26.18, 26.18,  4.36 au
Average spatial batch extension              ...   0.42,  0.42,  0.18 au

Time for grid setup =    0.266 sec

--------------
SCF ITERATIONS
--------------
ITER       Energy         Delta-E        Max-DP      RMS-DP      [F,P]     Damp
               ***  Starting incremental Fock matrix formation  ***
  0  -4921.4056737739   0.000000000000 0.00071028  0.00001381  0.0042278 0.7000
  1  -4921.4056749717  -0.000001197814 0.00070196  0.00001309  0.0029604 0.7000
                               ***Turning on DIIS***
  2  -4921.4056758741  -0.000000902413 0.00176447  0.00003303  0.0020722 0.0000
  3  -4921.4056776478  -0.000001773717 0.00098459  0.00000912  0.0000971 0.0000
  4  -4921.4056775805   0.000000067313 0.00062354  0.00000576  0.0001109 0.0000
  5  -4921.4056777364  -0.000000155844 0.00005081  0.00000098  0.0002056 0.0000
  6  -4921.4056777328   0.000000003605 0.00002488  0.00000038  0.0000422 0.0000
  7  -4921.4056777523  -0.000000019528 0.00002738  0.00000035  0.0000298 0.0000
  8  -4921.4056777948  -0.000000042503 0.00004750  0.00000050  0.0000074 0.0000
  9  -4921.4056777723   0.000000022508 0.00003791  0.00000040  0.0000164 0.0000
                            ***DIIS convergence achieved***

               *****************************************************
               *                     SUCCESS                       *
               *           SCF CONVERGED AFTER  10 CYCLES          *
               *****************************************************

Total Energy       :        -4921.40567776 Eh         -133918.25676 eV
  Last Energy change         ...    1.4040e-08  Tolerance :   1.0000e-08
  Last MAX-Density change    ...    2.1243e-06  Tolerance :   1.0000e-07
             **** THE GBW FILE WAS UPDATED (Cu03C1_LIN.gbw) ****
             **** DENSITY FILE WAS UPDATED (Cu03C1_LIN.scfp) ****
             **** ENERGY FILE WAS UPDATED (Cu03C1_LIN.en.tmp) ****
             **** THE GBW FILE WAS UPDATED (Cu03C1_LIN.gbw) ****
             **** DENSITY FILE WAS UPDATED (Cu03C1_LIN.scfp) ****
Total SCF time: 0 days 0 hours 0 min 2 sec 


-------------------------------------------------------------------------------
                          DFT DISPERSION CORRECTION                            
                                                                               
                              DFTD3 V3.1  Rev 1                                
                          USING Becke-Johnson damping                          
-------------------------------------------------------------------------------
-------------------------   ----------------
Dispersion correction           -0.003422976
-------------------------   ----------------


-------------------------   --------------------
FINAL SINGLE POINT ENERGY     -4921.409100734207
-------------------------   --------------------



           ************************************************************
           *        Program running with 24 parallel MPI-processes    *
           *              working on a common directory               *
           ************************************************************
------------------------------------------------------------------------------
                         ORCA SCF GRADIENT CALCULATION
------------------------------------------------------------------------------

Gradient of the Kohn-Sham DFT energy:
Kohn-Sham wavefunction type      ... RKS
Hartree-Fock exchange scaling    ...    0.000
Number of operators              ...    1
Number of atoms                  ...    3
Basis set dimensions             ...  201
Integral neglect threshold       ... 2.5e-11
Integral primitive cutoff        ... 2.5e-12

Nuclear repulsion gradient       ... done
One Electron Gradient            ... done
Pre-screening matrix             ... done
RI-J gradient                    ... done
Exchange-correlation gradient    ... done
Dispersion correction            ... done

------------------
CARTESIAN GRADIENT
------------------

   1   Cu  :    0.000000015    0.000000031   -0.000000103
   2   Cu  :   -0.000000012    0.000000011   -0.000017013
   3   Cu  :   -0.000000013   -0.000000002    0.000017075

Difference to translation invariance:
           :   -0.0000000094    0.0000000402   -0.0000000413

Norm of the cartesian gradient     ...    0.0000241037
RMS gradient                       ...    0.0000080346
MAX gradient                       ...    0.0000170747

-------
TIMINGS
-------

Total SCF gradient time            ...        0.521 sec

One electron gradient       ....       0.023 sec  (  4.4%)
Prescreening matrices       ....       0.133 sec  ( 25.6%)
RI-J Coulomb gradient       ....       0.122 sec  ( 23.5%)
XC gradient                 ....       0.040 sec  (  7.6%)
------------------------------------------------------------------------------
                         ORCA GEOMETRY RELAXATION STEP
------------------------------------------------------------------------------

Reading the OPT-File                    .... done
Getting information on internals        .... done
Copying old internal coords+grads       .... done
Making the new internal coordinates     .... (new redundants).... done
Validating the new internal coordinates .... (new redundants).... done
Calculating the B-matrix                .... done
Calculating the G,G- and P matrices     .... done
Transforming gradient to internals      .... done
Projecting the internal gradient        .... done
Number of atoms                         ....   3
Number of internal coordinates          ....   4
Current Energy                          .... -4921.409100734 Eh
Current gradient norm                   ....     0.000024104 Eh/bohr
Maximum allowed component of the step   ....  0.300
Current trust radius                    ....  0.300
Updating the Hessian (BFGS)             .... done
Forming the augmented Hessian           .... done
Diagonalizing the augmented Hessian     .... done
Last element of RFO vector              ....  0.999999888
Lowest eigenvalues of augmented Hessian:
 -0.000000011  0.050943506  1.051601113  1.051601118
Length of the computed step             ....  0.000473140
The final length of the internal step   ....  0.000473140
Converting the step to cartesian space:
 Initial RMS(Int)=    0.0002365699
Transforming coordinates:
 Iter   0:  RMS(Cart)=    0.0001577133 RMS(Int)=    0.0002365699
 Iter   1:  RMS(Cart)=    0.0000000029 RMS(Int)=    0.0000000023
done
Storing new coordinates                 .... done

                                .--------------------.
          ----------------------|Geometry convergence|-------------------------
          Item                value                   Tolerance       Converged
          ---------------------------------------------------------------------
          Energy change      -0.0000019956            0.0000050000      YES
          RMS gradient        0.0000120517            0.0001000000      YES
          MAX gradient        0.0000170885            0.0003000000      YES
          RMS step            0.0002365699            0.0020000000      YES
          MAX step            0.0003345945            0.0040000000      YES
          ........................................................
          Max(Bonds)      0.0002      Max(Angles)    0.00
          Max(Dihed)        0.00      Max(Improp)    0.00
          ---------------------------------------------------------------------

                    ***********************HURRAY********************
                    ***        THE OPTIMIZATION HAS CONVERGED     ***
                    *************************************************


    ---------------------------------------------------------------------------
                         Redundant Internal Coordinates

                          --- Optimized Parameters ---  
                            (Angstroem and degrees)

        Definition                    OldVal   dE/dq     Step     FinalVal
    ----------------------------------------------------------------------------
     1. B(Cu  1,Cu  0)                2.3303 -0.000017  0.0002    2.3304   
     2. B(Cu  2,Cu  0)                2.3303 -0.000017  0.0002    2.3304   
     3. L(Cu  1,Cu  0,Cu  2, 2)       180.00 -0.000000    0.00    180.00   
     4. L(Cu  1,Cu  0,Cu  2, 1)       180.00  0.000000   -0.00    180.00   
    ----------------------------------------------------------------------------
                 *******************************************************
                 *** FINAL ENERGY EVALUATION AT THE STATIONARY POINT ***
                 ***               (AFTER    3 CYCLES)               ***
                 *******************************************************
---------------------------------
CARTESIAN COORDINATES (ANGSTROEM)
---------------------------------
  Cu    -0.000000   -0.000000   -0.000000
  Cu     0.000000    0.000000    2.330440
  Cu     0.000000    0.000000   -2.330440

----------------------------
CARTESIAN COORDINATES (A.U.)
----------------------------
  NO LB      ZA    FRAG     MASS         X           Y           Z
   0 Cu   29.0000    0    63.550   -0.000000   -0.000000   -0.000000
   1 Cu   29.0000    0    63.550    0.000000    0.000000    4.403893
   2 Cu   29.0000    0    63.550    0.000000    0.000000   -4.403893

--------------------------------
INTERNAL COORDINATES (ANGSTROEM)
--------------------------------
 Cu     0   0   0     0.000000000000     0.00000000     0.00000000
 Cu     1   0   0     2.330440077631     0.00000000     0.00000000
 Cu     1   2   0     2.330439626268   179.99999227     0.00000000

---------------------------
INTERNAL COORDINATES (A.U.)
---------------------------
 Cu     0   0   0     0.000000000000     0.00000000     0.00000000
 Cu     1   0   0     4.403893518236     0.00000000     0.00000000
 Cu     1   2   0     4.403892665284   179.99999227     0.00000000

---------------------
BASIS SET INFORMATION
---------------------
There are 1 groups of distinct atoms

 Group   1 Type Cu  : 17s13p7d2f1g contracted to 6s6p4d2f1g pattern {842111/631111/4111/11/1}

Atom   0Cu   basis set group =>   1
Atom   1Cu   basis set group =>   1
Atom   2Cu   basis set group =>   1
---------------------------------
AUXILIARY/J BASIS SET INFORMATION
---------------------------------
There are 1 groups of distinct atoms

 Group   1 Type Cu  : 19s5p5d3f3g contracted to 8s5p4d3f3g pattern {121111111/11111/2111/111/111}

Atom   0Cu   basis set group =>   1
Atom   1Cu   basis set group =>   1
Atom   2Cu   basis set group =>   1


           ************************************************************
           *        Program running with 24 parallel MPI-processes    *
           *              working on a common directory               *
           ************************************************************
------------------------------------------------------------------------------
                           ORCA GTO INTEGRAL CALCULATION
                           -- RI-GTO INTEGRALS CHOSEN --
------------------------------------------------------------------------------

                         BASIS SET STATISTICS AND STARTUP INFO

Gaussian basis set:
 # of primitive gaussian shells          ...  120
 # of primitive gaussian functions       ...  342
 # of contracted shells                  ...   57
 # of contracted basis functions         ...  201
 Highest angular momentum                ...    4
 Maximum contraction depth               ...    8
Auxiliary gaussian basis set:
 # of primitive gaussian shells          ...  105
 # of primitive gaussian functions       ...  321
 # of contracted shells                  ...   69
 # of contracted aux-basis functions     ...  273
 Highest angular momentum                ...    4
 Maximum contraction depth               ...   12
Ratio of auxiliary to basis functions    ...  1.36
Integral package used                  ... LIBINT
 One Electron integrals                  ... done
 Ordering auxiliary basis shells         ... done
 Integral threshhold             Thresh  ...  2.500e-11
 Primitive cut-off               TCut    ...  2.500e-12
 Pre-screening matrix                    ... done
 Shell pair data                         ... 
 Ordering of the shell pairs             ... done (   0.000 sec) 1432 of 1653 pairs
 Determination of significant pairs      ... done (   0.000 sec)
 Creation of shell pair data             ... done (   0.000 sec)
 Storage of shell pair data              ... done (   0.006 sec)
 Shell pair data done in (   0.006 sec)
 Computing two index integrals           ... done
 Cholesky decomposition of the V-matrix  ... done


Timings:
 Total evaluation time                   ...   0.265 sec (  0.004 min)
 One electron matrix time                ...   0.018 sec (  0.000 min) =  6.9%
 Schwartz matrix evaluation time         ...   0.200 sec (  0.003 min) = 75.3%
 Two index repulsion integral time       ...   0.001 sec (  0.000 min) =  0.5%
 Cholesky decomposition of V             ...   0.004 sec (  0.000 min) =  1.5%
 Three index repulsion integral time     ...   0.000 sec (  0.000 min) =  0.0%



           ************************************************************
           *        Program running with 24 parallel MPI-processes    *
           *              working on a common directory               *
           ************************************************************
-------------------------------------------------------------------------------
                                 ORCA SCF
-------------------------------------------------------------------------------

------------
SCF SETTINGS
------------
Hamiltonian:
 Density Functional     Method          .... DFT(GTOs)
 Exchange Functional    Exchange        .... TPSS
 Correlation Functional Correlation     .... TPSS
 LDA part of GGA corr.  LDAOpt          .... PW91-LDA
 Gradients option       PostSCFGGA      .... off
   Density functional embedding theory  .... OFF
   NL short-range parameter             ....  5.000000
 RI-approximation to the Coulomb term is turned on
   Number of auxiliary basis functions  .... 273


General Settings:
 Integral files         IntName         .... Cu03C1_LIN
 Hartree-Fock type      HFTyp           .... RHF
 Total Charge           Charge          ....    1
 Multiplicity           Mult            ....    1
 Number of Electrons    NEL             ....   86
 Basis Dimension        Dim             ....  201
 Nuclear Repulsion      ENuc            ....    477.4184922731 Eh

Convergence Acceleration:
 DIIS                   CNVDIIS         .... on
   Start iteration      DIISMaxIt       ....    12
   Startup error        DIISStart       ....  0.200000
   # of expansion vecs  DIISMaxEq       ....     5
   Bias factor          DIISBfac        ....   1.050
   Max. coefficient     DIISMaxC        ....  10.000
 Newton-Raphson         CNVNR           .... off
 SOSCF                  CNVSOSCF        .... off
 Level Shifting         CNVShift        .... on
   Level shift para.    LevelShift      ....    0.2500
   Turn off err/grad.   ShiftErr        ....    0.0010
 Zerner damping         CNVZerner       .... off
 Static damping         CNVDamp         .... on
   Fraction old density DampFac         ....    0.7000
   Max. Damping (<1)    DampMax         ....    0.9800
   Min. Damping (>=0)   DampMin         ....    0.0000
   Turn off err/grad.   DampErr         ....    0.1000
 Fernandez-Rico         CNVRico         .... off

SCF Procedure:
 Maximum # iterations   MaxIter         ....   125
 SCF integral mode      SCFMode         .... Direct
   Integral package                     .... LIBINT
 Reset frequency        DirectResetFreq ....    20
 Integral Threshold     Thresh          ....  2.500e-11 Eh
 Primitive CutOff       TCut            ....  2.500e-12 Eh

Convergence Tolerance:
 Convergence Check Mode ConvCheckMode   .... Total+1el-Energy
 Convergence forced     ConvForced      .... 0
 Energy Change          TolE            ....  1.000e-08 Eh
 1-El. energy change                    ....  1.000e-05 Eh
 DIIS Error             TolErr          ....  5.000e-07


Diagonalization of the overlap matrix:
Smallest eigenvalue                        ... 3.516e-04
Time for diagonalization                   ...    0.008 sec
Threshold for overlap eigenvalues          ... 1.000e-08
Number of eigenvalues below threshold      ... 0
Time for construction of square roots      ...    0.005 sec
Total time needed                          ...    0.014 sec

---------------------
INITIAL GUESS: MOREAD
---------------------
Guess MOs are being read from file: Cu03C1_LIN.gbw
Input Geometry matches current geometry (good)
Input basis set matches current basis set (good)
MOs were renormalized
MOs were reorthogonalized (Cholesky)
[...]
      g-1     :     0.000000
      g+2     :     0.000000
      g-2     :     0.000000
      g+3     :     0.000000
      g-3     :     0.000000
      g+4     :     0.000000
      g-4     :     0.000000
  1 Cus       :     6.410150  s :     6.410150
      pz      :     3.997995  p :    12.024821
      px      :     4.013413
      py      :     4.013413
      dz2     :     1.944862  d :     9.924226
      dxz     :     1.989706
      dyz     :     1.989706
      dx2y2   :     1.999976
      dxy     :     1.999976
      f0      :     0.000044  f :     0.000143
      f+1     :     0.000041
      f-1     :     0.000041
      f+2     :     0.000009
      f-2     :     0.000009
      f+3     :     0.000000
      f-3     :     0.000000
      g0      :     0.000000  g :     0.000001
      g+1     :     0.000000
      g-1     :     0.000000
      g+2     :     0.000000
      g-2     :     0.000000
      g+3     :     0.000000
      g-3     :     0.000000
      g+4     :     0.000000
      g-4     :     0.000000
  2 Cus       :     6.410183  s :     6.410183
      pz      :     3.997999  p :    12.024826
      px      :     4.013413
      py      :     4.013413
      dz2     :     1.944868  d :     9.924232
      dxz     :     1.989706
      dyz     :     1.989706
      dx2y2   :     1.999976
      dxy     :     1.999976
      f0      :     0.000044  f :     0.000143
      f+1     :     0.000041
      f-1     :     0.000041
      f+2     :     0.000009
      f-2     :     0.000009
      f+3     :     0.000000
      f-3     :     0.000000
      g0      :     0.000000  g :     0.000001
      g+1     :     0.000000
      g-1     :     0.000000
      g+2     :     0.000000
      g-2     :     0.000000
      g+3     :     0.000000
      g-3     :     0.000000
      g+4     :     0.000000
      g-4     :     0.000000


                     *******************************
                     * LOEWDIN POPULATION ANALYSIS *
                     *******************************

----------------------
LOEWDIN ATOMIC CHARGES
----------------------
   0 Cu:    0.120532
   1 Cu:    0.439747
   2 Cu:    0.439721

-------------------------------
LOEWDIN REDUCED ORBITAL CHARGES
-------------------------------
  0 Cus       :     6.730736  s :     6.730736
      pz      :     4.074320  p :    12.110772
      px      :     4.018226
      py      :     4.018226
      dz2     :     2.094466  d :    10.037337
      dxz     :     1.971966
      dyz     :     1.971966
      dx2y2   :     1.999470
      dxy     :     1.999470
      f0      :     0.000326  f :     0.000621
      f+1     :     0.000139
      f-1     :     0.000139
      f+2     :     0.000009
      f-2     :     0.000009
      f+3     :     0.000000
      f-3     :     0.000000
      g0      :     0.000001  g :     0.000002
      g+1     :     0.000001
      g-1     :     0.000001
      g+2     :     0.000000
      g-2     :     0.000000
      g+3     :     0.000000
      g-3     :     0.000000
      g+4     :     0.000000
      g-4     :     0.000000
  1 Cus       :     6.421276  s :     6.421276
      pz      :     4.132483  p :    12.161381
      px      :     4.014449
      py      :     4.014449
      dz2     :     1.996171  d :     9.977276
      dxz     :     1.990302
      dyz     :     1.990302
      dx2y2   :     2.000250
      dxy     :     2.000250
      f0      :     0.000133  f :     0.000319
      f+1     :     0.000083
      f-1     :     0.000083
      f+2     :     0.000010
      f-2     :     0.000010
      f+3     :     0.000000
      f-3     :     0.000000
      g0      :     0.000000  g :     0.000001
      g+1     :     0.000000
      g-1     :     0.000000
      g+2     :     0.000000
      g-2     :     0.000000
      g+3     :     0.000000
      g-3     :     0.000000
      g+4     :     0.000000
      g-4     :     0.000000
  2 Cus       :     6.421296  s :     6.421296
      pz      :     4.132483  p :    12.161381
      px      :     4.014449
      py      :     4.014449
      dz2     :     1.996176  d :     9.977281
      dxz     :     1.990302
      dyz     :     1.990302
      dx2y2   :     2.000250
      dxy     :     2.000250
      f0      :     0.000133  f :     0.000319
      f+1     :     0.000083
      f-1     :     0.000083
      f+2     :     0.000010
      f-2     :     0.000010
      f+3     :     0.000000
      f-3     :     0.000000
      g0      :     0.000000  g :     0.000001
      g+1     :     0.000000
      g-1     :     0.000000
      g+2     :     0.000000
      g-2     :     0.000000
      g+3     :     0.000000
      g-3     :     0.000000
      g+4     :     0.000000
      g-4     :     0.000000


                      *****************************
                      * MAYER POPULATION ANALYSIS *
                      *****************************

  NA   - Mulliken gross atomic population
  ZA   - Total nuclear charge
  QA   - Mulliken gross atomic charge
  VA   - Mayer's total valence
  BVA  - Mayer's bonded valence
  FA   - Mayer's free valence

  ATOM       NA         ZA         QA         VA         BVA        FA
  0 Cu    29.2813    29.0000    -0.2813     1.0099     1.0099    -0.0000
  1 Cu    28.3593    29.0000     0.6407     0.8001     0.8001    -0.0000
  2 Cu    28.3594    29.0000     0.6406     0.8002     0.8002    -0.0000

  Mayer bond orders larger than 0.100000
B(  0-Cu,  1-Cu) :   0.5049 B(  0-Cu,  2-Cu) :   0.5050 B(  1-Cu,  2-Cu) :   0.2952 


-------
TIMINGS
-------

Total SCF time: 0 days 0 hours 0 min 1 sec 

Total time                  ....       1.322 sec
Sum of individual times     ....       1.183 sec  ( 89.5%)

Fock matrix formation       ....       0.846 sec  ( 64.0%)
  Split-RI-J                ....       0.578 sec  ( 68.3% of F)
  XC integration            ....       0.164 sec  ( 19.4% of F)
    Basis function eval.    ....       0.019 sec  ( 11.9% of XC)
    Density eval.           ....       0.029 sec  ( 17.9% of XC)
    XC-Functional eval.     ....       0.013 sec  (  8.1% of XC)
    XC-Potential eval.      ....       0.047 sec  ( 28.9% of XC)
Diagonalization             ....       0.035 sec  (  2.6%)
Density matrix formation    ....       0.004 sec  (  0.3%)
Population analysis         ....       0.006 sec  (  0.5%)
Initial guess               ....       0.016 sec  (  1.2%)
Orbital Transformation      ....       0.000 sec  (  0.0%)
Orbital Orthonormalization  ....       0.011 sec  (  0.8%)
DIIS solution               ....       0.012 sec  (  0.9%)
Grid generation             ....       0.263 sec  ( 19.9%)


-------------------------------------------------------------------------------
                          DFT DISPERSION CORRECTION                            
                                                                               
                              DFTD3 V3.1  Rev 1                                
                          USING Becke-Johnson damping                          
-------------------------------------------------------------------------------
The TPSS functional is recognized
Active option DFTDOPT                   ...         4   

molecular C6(AA) [au] = 1599.215247 


            DFT-D V3
 parameters
 s6 scaling factor         :     1.0000 
 a1 scaling factor         :     0.4535 
 s8 scaling factor         :     1.9435 
 a2 scaling factor         :     4.4752 
 ad hoc parameters k1-k3   :    16.0000     1.3333    -4.0000 

 Edisp/kcal,au: -2.147840180290  -0.003422800834 
 E6   /kcal   :  -0.676548746 
 E8   /kcal   :  -1.471291435 
 % E8         :  68.500973593 

-------------------------   ----------------
Dispersion correction           -0.003422801
-------------------------   ----------------


-------------------------   --------------------
FINAL SINGLE POINT ENERGY     -4921.409100518648
-------------------------   --------------------

                                *** OPTIMIZATION RUN DONE ***

                            ***************************************
                            *     ORCA property calculations      *
                            ***************************************

                                    ---------------------
                                    Active property flags
                                    ---------------------
   (+) Dipole Moment


------------------------------------------------------------------------------
                       ORCA ELECTRIC PROPERTIES CALCULATION
------------------------------------------------------------------------------

Dipole Moment Calculation                       ... on
Quadrupole Moment Calculation                   ... off
Polarizability Calculation                      ... off
GBWName                                         ... Cu03C1_LIN.gbw
Electron density file                           ... Cu03C1_LIN.scfp
The origin for moment calculation is the CENTER OF MASS  = (-0.000000,  0.000000 -0.000000)

-------------
DIPOLE MOMENT
-------------
                                X             Y             Z
Electronic contribution:     -0.00000       0.00000       0.00016
Nuclear contribution   :      0.00000       0.00000       0.00000
                        -----------------------------------------
Total Dipole Moment    :     -0.00000       0.00000       0.00016
                        -----------------------------------------
Magnitude (a.u.)       :      0.00016
Magnitude (Debye)      :      0.00039



--------------------
Rotational spectrum 
--------------------
 
Rotational constants in cm-1:     0.000000     0.024422     0.024422 
Rotational constants in MHz :     0.000000   732.143577   732.143577 

 Dipole components along the rotational axes: 
x,y,z [a.u.] :     0.000155    -0.000000     0.000000 
x,y,z [Debye]:     0.000395    -0.000000     0.000000 

 

----------------------------------------------------------------------------
                           ORCA NUMERICAL FREQUENCIES
                              (24-process run)
----------------------------------------------------------------------------

Number of atoms                ... 3
Central differences            ... used
Number of displacements        ... 18
Numerical increment            ... 5.000e-03 bohr
IR-spectrum generation         ... on
Raman-spectrum generation      ... off
Surface Crossing Hessian       ... off

 WARNING: There are more processes than displacements to do
  ====> : Reducing number of processes to   9

The output will be reduced. Please look at the following files:
SCF program output             ... >Cu03C1_LIN.lastscf
Integral program output        ... >Cu03C1_LIN.lastint
Gradient program output        ... >Cu03C1_LIN.lastgrad
Dipole moment program output   ... >Cu03C1_LIN.lastmom
AutoCI program output          ... >Cu03C1_LIN.lastautoci


         <<< Energy and Gradient at the input geometry >>>

        <<< Energy and Gradient at displaced geometries >>>
             <<<Displacing   1/coordinate 1 (+)>>>
             <<<Displacing   1/coordinate 3 (+)>>>
             <<<Displacing   1/coordinate 2 (+)>>>
             <<<Displacing   3/coordinate 1 (+)>>>
             <<<Displacing   2/coordinate 1 (+)>>>
             <<<Displacing   2/coordinate 2 (+)>>>
             <<<Displacing   3/coordinate 2 (+)>>>
             <<<Displacing   3/coordinate 3 (+)>>>
             <<<Displacing   2/coordinate 3 (+)>>>
             <<<Displacing   3/coordinate 3 (-)>>>
             <<<Displacing   2/coordinate 1 (-)>>>
             <<<Displacing   3/coordinate 2 (-)>>>
             <<<Displacing   3/coordinate 1 (-)>>>
             <<<Displacing   1/coordinate 3 (-)>>>
             <<<Displacing   2/coordinate 2 (-)>>>
             <<<Displacing   2/coordinate 3 (-)>>>
             <<<Displacing   1/coordinate 2 (-)>>>
             <<<Displacing   1/coordinate 1 (-)>>>

-----------------------
VIBRATIONAL FREQUENCIES
-----------------------

Scaling factor for frequencies =  1.000000000 (already applied!)

   0:         0.00 cm**-1
   1:         0.00 cm**-1
   2:         0.00 cm**-1
   3:         0.00 cm**-1
   4:         0.00 cm**-1
   5:         0.00 cm**-1
   6:      -103.18 cm**-1 ***imaginary mode***
   7:       146.80 cm**-1
   8:       246.48 cm**-1


------------
NORMAL MODES
------------

These modes are the cartesian displacements weighted by the diagonal matrix
M(i,i)=1/sqrt(m[i]) where m[i] is the mass of the displaced atom
Thus, these vectors are normalized but *not* orthogonal

                  0          1          2          3          4          5    
      0       0.000000   0.000000   0.000000   0.000000   0.000000   0.000000
      1       0.000000   0.000000   0.000000   0.000000   0.000000   0.000000
      2       0.000000   0.000000   0.000000   0.000000   0.000000   0.000000
      3       0.000000   0.000000   0.000000   0.000000   0.000000   0.000000
      4       0.000000   0.000000   0.000000   0.000000   0.000000   0.000000
      5       0.000000   0.000000   0.000000   0.000000   0.000000   0.000000
      6       0.000000   0.000000   0.000000   0.000000   0.000000   0.000000
      7       0.000000   0.000000   0.000000   0.000000   0.000000   0.000000
      8       0.000000   0.000000   0.000000   0.000000   0.000000   0.000000
                   6          7          8    
      0       0.726815   0.000001  -0.000002
      1       0.372030   0.000001  -0.000001
      2       0.000002   0.000004   0.816497
      3      -0.363408  -0.000001   0.000001
      4      -0.186015  -0.000000   0.000000
      5       0.000000  -0.707109  -0.408245
      6      -0.363408  -0.000001   0.000001
      7      -0.186015  -0.000000   0.000000
      8      -0.000002   0.707105  -0.408251


-----------
IR SPECTRUM  
-----------

 Mode    freq (cm**-1)   T**2         TX         TY         TZ
-------------------------------------------------------------------
   7:       146.80    0.000032  ( -0.000025  -0.000023  -0.005661)
   8:       246.48   25.848961  (  0.000012   0.000006  -5.084187)

The first frequency considered to be a vibration is 7
The total number of vibrations considered is 2


--------------------------
THERMOCHEMISTRY AT 298.15K
--------------------------

Temperature         ... 298.15 K
Pressure            ... 1.00 atm
Total Mass          ... 190.65 AMU
The molecule is recognized as being linear

Throughout the following assumptions are being made:
  (1) The electronic state is orbitally nondegenerate
  (2) There are no thermally accessible electronically excited states
  (3) Hindered rotations indicated by low frequency modes are not
      treated as such but are treated as vibrations and this may
      cause some error
  (4) All equations used are the standard statistical mechanics
      equations for an ideal gas
  (5) All vibrations are strictly harmonic

freq.     146.80  E(vib)   ...       0.41 
freq.     246.48  E(vib)   ...       0.31 

------------
INNER ENERGY
------------

The inner energy is: U= E(el) + E(ZPE) + E(vib) + E(rot) + E(trans)
    E(el)   - is the total energy from the electronic structure calculation
              = E(kin-el) + E(nuc-el) + E(el-el) + E(nuc-nuc)
    E(ZPE)  - the the zero temperature vibrational energy from the frequency calculation
    E(vib)  - the the finite temperature correction to E(ZPE) due to population
              of excited vibrational states
    E(rot)  - is the rotational thermal energy
    E(trans)- is the translational thermal energy

Summary of contributions to the inner energy U:
Electronic energy                ...  -4921.40910065 Eh
Zero point energy                ...      0.00089596 Eh       0.56 kcal/mol
Thermal vibrational correction   ...      0.00114039 Eh       0.72 kcal/mol
Thermal rotational correction    ...      0.00094418 Eh       0.59 kcal/mol
Thermal translational correction ...      0.00141627 Eh       0.89 kcal/mol
-----------------------------------------------------------------------
Total thermal energy                  -4921.40470384 Eh


Summary of corrections to the electronic energy:
(perhaps to be used in another calculation)
Total thermal correction                  0.00350084 Eh       2.20 kcal/mol
Non-thermal (ZPE) correction              0.00089596 Eh       0.56 kcal/mol
-----------------------------------------------------------------------
Total correction                          0.00439680 Eh       2.76 kcal/mol


--------
ENTHALPY
--------

The enthalpy is H = U + kB*T
                kB is Boltzmann's constant
Total free energy                 ...  -4921.40470384 Eh 
Thermal Enthalpy correction       ...      0.00094421 Eh       0.59 kcal/mol
-----------------------------------------------------------------------
Total Enthalpy                    ...  -4921.40375963 Eh


Note: Rotational entropy computed according to Herzberg 
Infrared and Raman Spectra, Chapter V,1, Van Nostrand Reinhold, 1945 
Point Group:  Dinfh, Symmetry Number:   2  
Rotational constants in cm-1:     0.000000     0.024422     0.024422 

Vibrational entropy computed according to the QRRHO of S. Grimme
Chem.Eur.J. 2012 18 9955


-------
ENTROPY
-------

The entropy contributions are T*S = T*(S(el)+S(vib)+S(rot)+S(trans))
     S(el)   - electronic entropy
     S(vib)  - vibrational entropy
     S(rot)  - rotational entropy
     S(trans)- translational entropy
The entropies will be listed as mutliplied by the temperature to get
units of energy

Electronic entropy                ...      0.00000000 Eh      0.00 kcal/mol
Vibrational entropy               ...      0.00210574 Eh      1.32 kcal/mol
Rotational entropy                ...      0.00883087 Eh      5.54 kcal/mol
Translational entropy             ...      0.01978512 Eh     12.42 kcal/mol
-----------------------------------------------------------------------
Final entropy term                ...      0.03072173 Eh     19.28 kcal/mol

In case the symmetry of your molecule has not been determined correctly
or in case you have a reason to use a different symmetry number we print 
out the resulting rotational entropy values for sn=1,12 :
 --------------------------------------------------------
|  sn= 1 | S(rot)=      -0.00131285 Eh     -0.82 kcal/mol|
|  sn= 2 | S(rot)=      -0.00196731 Eh     -1.23 kcal/mol|
|  sn= 3 | S(rot)=      -0.00235014 Eh     -1.47 kcal/mol|
|  sn= 4 | S(rot)=      -0.00262177 Eh     -1.65 kcal/mol|
|  sn= 5 | S(rot)=      -0.00283245 Eh     -1.78 kcal/mol|
|  sn= 6 | S(rot)=      -0.00300460 Eh     -1.89 kcal/mol|
|  sn= 7 | S(rot)=      -0.00315014 Eh     -1.98 kcal/mol|
|  sn= 8 | S(rot)=      -0.00327622 Eh     -2.06 kcal/mol|
|  sn= 9 | S(rot)=      -0.00338743 Eh     -2.13 kcal/mol|
|  sn=10 | S(rot)=      -0.00348691 Eh     -2.19 kcal/mol|
|  sn=11 | S(rot)=      -0.00357690 Eh     -2.24 kcal/mol|
|  sn=12 | S(rot)=      -0.00365905 Eh     -2.30 kcal/mol|
 --------------------------------------------------------


-------------------
GIBBS FREE ENERGY
-------------------

The Gibbs free energy is G = H - T*S

Total enthalpy                    ...  -4921.40375963 Eh 
Total entropy correction          ...     -0.03072173 Eh    -19.28 kcal/mol
-----------------------------------------------------------------------
Final Gibbs free energy         ...  -4921.43448136 Eh

For completeness - the Gibbs free energy minus the electronic energy
G-E(el)                           ...     -0.02538072 Eh    -15.93 kcal/mol


Total Time for Numerical Frequencies  :        28.352 sec

Timings for individual modules:

Sum of individual times         ...       17.858 sec (=   0.298 min)
GTO integral calculation        ...        3.374 sec (=   0.056 min)  18.9 %
SCF iterations                  ...       10.747 sec (=   0.179 min)  60.2 %
SCF Gradient evaluation         ...        3.621 sec (=   0.060 min)  20.3 %
Geometry relaxation             ...        0.116 sec (=   0.002 min)   0.6 %
                             ****ORCA TERMINATED NORMALLY****
TOTAL RUN TIME: 0 days 0 hours 0 minutes 43 seconds 932 msec
