
                                 *****************
                                 * O   R   C   A *
                                 *****************

           --- An Ab Initio, DFT and Semiempirical electronic structure package ---

                  #######################################################
                  #                        -***-                        #
                  #          Department of theory and spectroscopy      #
                  #               Directorship: Frank Neese             #
                  #        Max Planck Institute fuer Kohlenforschung    #
                  #                Kaiser Wilhelm Platz 1               #
                  #                 D-45470 Muelheim/Ruhr               #
                  #                      Germany                        #
                  #                                                     #
                  #                  All rights reserved                #
                  #                        -***-                        #
                  #######################################################


                         Program Version 4.2.0 -  RELEASE  -


 With contributions from (in alphabetic order):
   Daniel Aravena         : Magnetic Suceptibility
   Michael Atanasov       : Ab Initio Ligand Field Theory (pilot matlab implementation)
   Alexander A. Auer      : GIAO ZORA, VPT2
   Ute Becker             : Parallelization
   Giovanni Bistoni       : ED, misc. LED, open-shell LED, HFLED
   Martin Brehm           : Molecular dynamics
   Dmytro Bykov           : SCF Hessian
   Vijay G. Chilkuri      : MRCI spin determinant printing, contributions to CSF-ICE
   Dipayan Datta          : RHF DLPNO-CCSD density
   Achintya Kumar Dutta   : EOM-CC, STEOM-CC
   Dmitry Ganyushin       : Spin-Orbit,Spin-Spin,Magnetic field MRCI
   Miquel Garcia          : C-PCM Hessian, Gaussian charge scheme
   Yang Guo               : DLPNO-NEVPT2, CIM, IAO-localization
   Andreas Hansen         : Spin unrestricted coupled pair/coupled cluster methods
   Benjamin Helmich-Paris : CASSCF linear response (MC-RPA)
   Lee Huntington         : MR-EOM, pCC
   Robert Izsak           : Overlap fitted RIJCOSX, COSX-SCS-MP3, EOM
   Christian Kollmar      : KDIIS, OOCD, Brueckner-CCSD(T), CCSD density
   Simone Kossmann        : Meta GGA functionals, TD-DFT gradient, OOMP2, MP2 Hessian
   Martin Krupicka        : AUTO-CI
   Lucas Lang             : DCDCAS
   Dagmar Lenk            : GEPOL surface, SMD
   Dimitrios Liakos       : Extrapolation schemes; Compound Job, initial MDCI parallelization
   Dimitrios Manganas     : Further ROCIS development; embedding schemes
   Dimitrios Pantazis     : SARC Basis sets
   Taras Petrenko         : DFT Hessian,TD-DFT gradient, ASA, ECA, R-Raman, ABS, FL, XAS/XES, NRVS
   Peter Pinski           : DLPNO-MP2, DLPNO-MP2 Gradient
   Christoph Reimann      : Effective Core Potentials
   Marius Retegan         : Local ZFS, SOC
   Christoph Riplinger    : Optimizer, TS searches, QM/MM, DLPNO-CCSD(T), (RO)-DLPNO pert. Triples
   Tobias Risthaus        : Range-separated hybrids, TD-DFT gradient, RPA, STAB
   Michael Roemelt        : Original ROCIS implementation
   Masaaki Saitow         : Open-shell DLPNO-CCSD energy and density
   Barbara Sandhoefer     : DKH picture change effects
   Avijit Sen             : IP-ROCIS
   Kantharuban Sivalingam : CASSCF convergence, NEVPT2, FIC-MRCI
   Bernardo de Souza      : ESD, SOC TD-DFT
   Georgi Stoychev        : AutoAux, RI-MP2 NMR
   Willem Van den Heuvel  : Paramagnetic NMR
   Boris Wezisla          : Elementary symmetry handling
   Frank Wennmohs         : Technical directorship


 We gratefully acknowledge several colleagues who have allowed us to
 interface, adapt or use parts of their codes:
   Stefan Grimme, W. Hujo, H. Kruse,             : VdW corrections, initial TS optimization,
                  C. Bannwarth                     DFT functionals, gCP, sTDA/sTD-DF
   Ed Valeev, F. Pavosevic, A. Kumar             : LibInt (2-el integral package), F12 methods
   Garnet Chan, S. Sharma, J. Yang, R. Olivares  : DMRG
   Ulf Ekstrom                                   : XCFun DFT Library
   Mihaly Kallay                                 : mrcc  (arbitrary order and MRCC methods)
   Andreas Klamt, Michael Diedenhofen            : otool_cosmo (COSMO solvation model)
   Jiri Pittner, Ondrej Demel                    : Mk-CCSD
   Frank Weinhold                                : gennbo (NPA and NBO analysis)
   Christopher J. Cramer and Donald G. Truhlar   : smd solvation model
   Lars Goerigk                                  : TD-DFT with DH, B97 family of functionals
   V. Asgeirsson, H. Jonsson                     : NEB implementation
   FAccTs GmbH                                   : IRC, NEB, NEB-TS, Multilevel, MM, QM/MM, CI optimization
   S Lehtola, MJT Oliveira, MAL Marques          : LibXC Library


 Your calculation uses the libint2 library for the computation of 2-el integrals
 For citations please refer to: http://libint.valeyev.net

 Your ORCA version has been built with support for libXC version: 4.2.3
 For citations please refer to: https://tddft.org/programs/libxc/

 This ORCA versions uses:
   CBLAS   interface :  Fast vector & matrix operations
   LAPACKE interface :  Fast linear algebra routines
   SCALAPACK package :  Parallel linear algebra routines


Your calculation utilizes the atom-pairwise dispersion correction
with the Becke-Johnson damping scheme (D3BJ)
Cite in your paper:
S.Grimme, S.Ehrlich, L.Goerigk, J Comput Chem, (2011), 32, 1456–1465 
S.Grimme, J.Antony, S.Ehrlich and H.Krieg, J.Chem.Phys., 132, (2010), 154104 
   

----- Orbital basis set information -----
Your calculation utilizes the basis: def2-TZVPPD
   F. Weigend and R. Ahlrichs, Phys. Chem. Chem. Phys. 7, 3297 (2005).
   D. Rappoport and F. Furche, J. Chem. Phys. 133 134105 (2010).

----- AuxJ basis set information -----
Your calculation utilizes the auxiliary basis: def2/J
   F. Weigend, Phys. Chem. Chem. Phys. 8, 1057 (2006).

================================================================================
                                        WARNINGS
                       Please study these warnings very carefully!
================================================================================


WARNING: your system is open-shell and RHF/RKS was chosen
  ===> : WILL SWITCH to UHF/UKS


WARNING: Geometry Optimization
  ===> : Switching off AutoStart
         For restart on a previous wavefunction, please use MOREAD

INFO   : the flag for use of LIBINT has been found!

================================================================================
                                       INPUT FILE
================================================================================
NAME = Cu03N0_D3H.in
|  1> #
|  2> # Cu03N0_D3H TPSS-D3BJ/Def2-TZVPPD
|  3> #
|  4> ! tpss d3bj def2-tzvppd def2/j grid4 nofinalgrid opt xyzfile numfreq
|  5> 
|  6> *xyz 0 2
|  7> Cu       0.000000    1.346828   -0.000000 
|  8> Cu       1.166387   -0.673414   -0.000000 
|  9> Cu      -1.166387   -0.673414   -0.000000 
| 10> *
| 11> 
| 12> %maxcore 5000
| 13> 
| 14> %pal
| 15> nprocs = 24
| 16> end
| 17> 
| 18> 
| 19>                          ****END OF INPUT****
================================================================================

                       *****************************
                       * Geometry Optimization Run *
                       *****************************

Geometry optimization settings:
Update method            Update   .... BFGS
Choice of coordinates    CoordSys .... Z-matrix Internals
Initial Hessian          InHess   .... Almoef's Model

Convergence Tolerances:
Energy Change            TolE     ....  5.0000e-06 Eh
Max. Gradient            TolMAXG  ....  3.0000e-04 Eh/bohr
RMS Gradient             TolRMSG  ....  1.0000e-04 Eh/bohr
Max. Displacement        TolMAXD  ....  4.0000e-03 bohr
RMS Displacement         TolRMSD  ....  2.0000e-03 bohr
Strict Convergence                ....  False
------------------------------------------------------------------------------
                        ORCA OPTIMIZATION COORDINATE SETUP
------------------------------------------------------------------------------

The optimization will be done in new redundant internal coordinates
Making redundant internal coordinates   ...  (new redundants) done
Evaluating the initial hessian          ...  (Almloef) done
Evaluating the coordinates              ...  done
Calculating the B-matrix                .... done
Calculating the G-matrix                .... done
Diagonalizing the G-matrix              .... done
The first mode is                       ....    3
The number of degrees of freedom        ....    3

    -----------------------------------------------------------------
                    Redundant Internal Coordinates


    -----------------------------------------------------------------
         Definition                    Initial Value    Approx d2E/dq
    -----------------------------------------------------------------
      1. B(Cu  1,Cu  0)                  2.3328         2.003788   
      2. B(Cu  2,Cu  1)                  2.3328         2.003791   
      3. B(Cu  2,Cu  0)                  2.3328         2.003788   
      4. A(Cu  1,Cu  0,Cu  2)           60.0000         1.058655   
      5. A(Cu  0,Cu  1,Cu  2)           60.0000         1.058655   
      6. A(Cu  0,Cu  2,Cu  1)           60.0000         1.058655   
    -----------------------------------------------------------------

Number of atoms                         .... 3
Number of degrees of freedom            .... 6

         *************************************************************
         *                GEOMETRY OPTIMIZATION CYCLE   1            *
         *************************************************************
---------------------------------
CARTESIAN COORDINATES (ANGSTROEM)
---------------------------------
  Cu     0.000000    1.346828   -0.000000
  Cu     1.166387   -0.673414   -0.000000
  Cu    -1.166387   -0.673414   -0.000000

----------------------------
CARTESIAN COORDINATES (A.U.)
----------------------------
  NO LB      ZA    FRAG     MASS         X           Y           Z
   0 Cu   29.0000    0    63.550    0.000000    2.545136   -0.000000
   1 Cu   29.0000    0    63.550    2.204152   -1.272568   -0.000000
   2 Cu   29.0000    0    63.550   -2.204152   -1.272568   -0.000000

--------------------------------
INTERNAL COORDINATES (ANGSTROEM)
--------------------------------
 Cu     0   0   0     0.000000000000     0.00000000     0.00000000
 Cu     1   0   0     2.332774393792     0.00000000     0.00000000
 Cu     2   1   0     2.332774000000    60.00000558     0.00000000

---------------------------
INTERNAL COORDINATES (A.U.)
---------------------------
 Cu     0   0   0     0.000000000000     0.00000000     0.00000000
 Cu     1   0   0     4.408304736492     0.00000000     0.00000000
 Cu     2   1   0     4.408303992332    60.00000558     0.00000000

---------------------
BASIS SET INFORMATION
---------------------
There are 1 groups of distinct atoms

 Group   1 Type Cu  : 17s13p7d2f1g contracted to 6s6p4d2f1g pattern {842111/631111/4111/11/1}

Atom   0Cu   basis set group =>   1
Atom   1Cu   basis set group =>   1
Atom   2Cu   basis set group =>   1
---------------------------------
AUXILIARY/J BASIS SET INFORMATION
---------------------------------
There are 1 groups of distinct atoms

 Group   1 Type Cu  : 19s5p5d3f3g contracted to 8s5p4d3f3g pattern {121111111/11111/2111/111/111}

Atom   0Cu   basis set group =>   1
Atom   1Cu   basis set group =>   1
Atom   2Cu   basis set group =>   1


           ************************************************************
           *        Program running with 24 parallel MPI-processes    *
           *              working on a common directory               *
           ************************************************************
------------------------------------------------------------------------------
                           ORCA GTO INTEGRAL CALCULATION
                           -- RI-GTO INTEGRALS CHOSEN --
------------------------------------------------------------------------------

                         BASIS SET STATISTICS AND STARTUP INFO

Gaussian basis set:
 # of primitive gaussian shells          ...  120
 # of primitive gaussian functions       ...  342
 # of contracted shells                  ...   57
 # of contracted basis functions         ...  201
 Highest angular momentum                ...    4
 Maximum contraction depth               ...    8
Auxiliary gaussian basis set:
 # of primitive gaussian shells          ...  105
 # of primitive gaussian functions       ...  321
 # of contracted shells                  ...   69
 # of contracted aux-basis functions     ...  273
 Highest angular momentum                ...    4
 Maximum contraction depth               ...   12
Ratio of auxiliary to basis functions    ...  1.36
Integral package used                  ... LIBINT
 One Electron integrals                  ... done
 Ordering auxiliary basis shells         ... done
 Integral threshhold             Thresh  ...  2.500e-11
 Primitive cut-off               TCut    ...  2.500e-12
 Pre-screening matrix                    ... done
 Shell pair data                         ... 
 Ordering of the shell pairs             ... done (   0.000 sec) 1533 of 1653 pairs
 Determination of significant pairs      ... done (   0.000 sec)
 Creation of shell pair data             ... done (   0.000 sec)
 Storage of shell pair data              ... done (   0.019 sec)
 Shell pair data done in (   0.019 sec)
 Computing two index integrals           ... done
 Cholesky decomposition of the V-matrix  ... done


Timings:
 Total evaluation time                   ...   0.332 sec (  0.006 min)
 One electron matrix time                ...   0.020 sec (  0.000 min) =  6.0%
 Schwartz matrix evaluation time         ...   0.188 sec (  0.003 min) = 56.6%
 Two index repulsion integral time       ...   0.001 sec (  0.000 min) =  0.4%
 Cholesky decomposition of V             ...   0.072 sec (  0.001 min) = 21.7%
 Three index repulsion integral time     ...   0.000 sec (  0.000 min) =  0.0%



           ************************************************************
           *        Program running with 24 parallel MPI-processes    *
           *              working on a common directory               *
           ************************************************************
-------------------------------------------------------------------------------
                                 ORCA SCF
-------------------------------------------------------------------------------

------------
SCF SETTINGS
------------
Hamiltonian:
 Density Functional     Method          .... DFT(GTOs)
 Exchange Functional    Exchange        .... TPSS
 Correlation Functional Correlation     .... TPSS
 LDA part of GGA corr.  LDAOpt          .... PW91-LDA
 Gradients option       PostSCFGGA      .... off
   Density functional embedding theory  .... OFF
   NL short-range parameter             ....  5.000000
 RI-approximation to the Coulomb term is turned on
   Number of auxiliary basis functions  .... 273


General Settings:
 Integral files         IntName         .... Cu03N0_D3H
 Hartree-Fock type      HFTyp           .... UHF
 Total Charge           Charge          ....    0
 Multiplicity           Mult            ....    2
 Number of Electrons    NEL             ....   87
 Basis Dimension        Dim             ....  201
 Nuclear Repulsion      ENuc            ....    572.3288866767 Eh

Convergence Acceleration:
 DIIS                   CNVDIIS         .... on
   Start iteration      DIISMaxIt       ....    12
   Startup error        DIISStart       ....  0.200000
   # of expansion vecs  DIISMaxEq       ....     5
   Bias factor          DIISBfac        ....   1.050
   Max. coefficient     DIISMaxC        ....  10.000
 Newton-Raphson         CNVNR           .... off
 SOSCF                  CNVSOSCF        .... off
 Level Shifting         CNVShift        .... on
   Level shift para.    LevelShift      ....    0.2500
   Turn off err/grad.   ShiftErr        ....    0.0010
 Zerner damping         CNVZerner       .... off
 Static damping         CNVDamp         .... on
   Fraction old density DampFac         ....    0.7000
   Max. Damping (<1)    DampMax         ....    0.9800
   Min. Damping (>=0)   DampMin         ....    0.0000
   Turn off err/grad.   DampErr         ....    0.1000
 Fernandez-Rico         CNVRico         .... off

SCF Procedure:
 Maximum # iterations   MaxIter         ....   125
 SCF integral mode      SCFMode         .... Direct
   Integral package                     .... LIBINT
 Reset frequency        DirectResetFreq ....    20
 Integral Threshold     Thresh          ....  2.500e-11 Eh
 Primitive CutOff       TCut            ....  2.500e-12 Eh

Convergence Tolerance:
 Convergence Check Mode ConvCheckMode   .... Total+1el-Energy
 Convergence forced     ConvForced      .... 0
 Energy Change          TolE            ....  1.000e-08 Eh
 1-El. energy change                    ....  1.000e-05 Eh
 DIIS Error             TolErr          ....  5.000e-07


Diagonalization of the overlap matrix:
Smallest eigenvalue                        ... 7.631e-04
Time for diagonalization                   ...    0.007 sec
Threshold for overlap eigenvalues          ... 1.000e-08
Number of eigenvalues below threshold      ... 0
Time for construction of square roots      ...    0.005 sec
Total time needed                          ...    0.013 sec

-------------------
DFT GRID GENERATION
-------------------

General Integration Accuracy     IntAcc      ...  4.670
Radial Grid Type                 RadialGrid  ... Gauss-Chebyshev
Angular Grid (max. acc.)         AngularGrid ... Lebedev-302
Angular grid pruning method      GridPruning ... 3 (G Style)
Weight generation scheme         WeightScheme... Becke
Basis function cutoff            BFCut       ...    1.0000e-11
Integration weight cutoff        WCut        ...    1.0000e-14
Grids for H and He will be reduced by one unit

# of grid points (after initial pruning)     ...  28668 (   0.0 sec)
# of grid points (after weights+screening)   ...  28566 (   0.0 sec)
nearest neighbour list constructed           ...    0.0 sec
Grid point re-assignment to atoms done       ...    0.0 sec
Grid point division into batches done        ...    0.2 sec
Reduced shell lists constructed in    0.2 sec

Total number of grid points                  ...    28566
Total number of batches                      ...      448
Average number of points per batch           ...       63
Average number of grid points per atom       ...     9522
Average number of shells per batch           ...    13.75 (24.12%)
Average number of basis functions per batch  ...    38.75 (19.28%)
Average number of large shells per batch     ...    10.10 (73.45%)
Average number of large basis fcns per batch ...    27.90 (72.00%)
Maximum spatial batch extension              ...  20.08, 17.16, 22.17 au
Average spatial batch extension              ...   0.56,  0.48,  0.54 au

Time for grid setup =    0.264 sec

------------------------------
INITIAL GUESS: MODEL POTENTIAL
------------------------------
Loading Hartree-Fock densities                     ... done
Calculating cut-offs                               ... done
Setting up the integral package                    ... done
Initializing the effective Hamiltonian             ... done
Starting the Coulomb interaction                   ... done (   0.0 sec)
Reading the grid                                   ... done
Mapping shells                                     ... done
Starting the XC term evaluation                    ... done (   0.0 sec)
  promolecular density results
     # of electrons  =     87.000079887
     EX              =   -196.482367765
     EC              =     -4.058912256
     EX+EC           =   -200.541280021
Transforming the Hamiltonian                       ... done (   0.0 sec)
Diagonalizing the Hamiltonian                      ... done (   0.0 sec)
Back transforming the eigenvectors                 ... done (   0.0 sec)
Now organizing SCF variables                       ... done
                      ------------------
                      INITIAL GUESS DONE (   0.4 sec)
                      ------------------
--------------
SCF ITERATIONS
--------------
ITER       Energy         Delta-E        Max-DP      RMS-DP      [F,P]     Damp
               ***  Starting incremental Fock matrix formation  ***
  0  -4921.5415325135   0.000000000000 0.13247891  0.00104464  0.1858371 0.7000
  1  -4921.6016443781  -0.060111864573 0.07881096  0.00060752  0.0617376 0.7000
                               ***Turning on DIIS***
  2  -4921.6242617194  -0.022617341332 0.12437253  0.00129547  0.0478988 0.0000
  3  -4921.6640686629  -0.039806943463 0.03316285  0.00035129  0.0987317 0.0000
  4  -4921.6809733815  -0.016904718675 0.01564626  0.00014243  0.0148359 0.0000
  5  -4921.6818114779  -0.000838096403 0.00863097  0.00008137  0.0171576 0.0000
  6  -4921.6820844506  -0.000272972653 0.00352816  0.00004116  0.0054675 0.0000
  7  -4921.6821496742  -0.000065223572 0.00178087  0.00002075  0.0012724 0.0000
  8  -4921.6821632643  -0.000013590132 0.00240887  0.00004640  0.0003011 0.0000
  9  -4921.6821785598  -0.000015295545 0.00057474  0.00001166  0.0002055 0.0000
 10  -4921.6821799252  -0.000001365359 0.00037450  0.00000678  0.0001450 0.0000
 11  -4921.6821804344  -0.000000509203 0.00015186  0.00000148  0.0002364 0.0000
 12  -4921.6821804299   0.000000004463 0.00017717  0.00000384  0.0000468 0.0000
 13  -4921.6821806437  -0.000000213751 0.00003543  0.00000051  0.0000676 0.0000
 14  -4921.6821806254   0.000000018342 0.00004535  0.00000068  0.0000240 0.0000
 15  -4921.6821806961  -0.000000070712 0.00004922  0.00000061  0.0000224 0.0000
 16  -4921.6821807517  -0.000000055601 0.00002674  0.00000029  0.0000175 0.0000
 17  -4921.6821807410   0.000000010625 0.00001165  0.00000018  0.0000167 0.0000
 18  -4921.6821807908  -0.000000049748 0.00000938  0.00000021  0.0000040 0.0000
 19  -4921.6821809012  -0.000000110438 0.00000640  0.00000006  0.0000022 0.0000
               *** Restarting incremental Fock matrix formation ***
                                   *** Resetting DIIS ***
 20  -4921.6821807877   0.000000113525 0.00003041  0.00000070  0.0000698 0.0000
 21  -4921.6821808107  -0.000000023033 0.00001891  0.00000024  0.0000065 0.0000
 22  -4921.6821807667   0.000000044010 0.00001346  0.00000019  0.0000397 0.0000
 23  -4921.6821808079  -0.000000041145 0.00000340  0.00000003  0.0000014 0.0000
 24  -4921.6821808336  -0.000000025728 0.00000376  0.00000004  0.0000013 0.0000
 25  -4921.6821808161   0.000000017469 0.00000197  0.00000002  0.0000011 0.0000
                            ***DIIS convergence achieved***

               *****************************************************
               *                     SUCCESS                       *
               *           SCF CONVERGED AFTER  26 CYCLES          *
               *****************************************************


----------------
TOTAL SCF ENERGY
----------------

Total Energy       :        -4921.68218082 Eh         -133925.78080 eV

Components:
Nuclear Repulsion  :          572.32888668 Eh           15573.86077 eV
Electronic Energy  :        -5494.01106749 Eh         -149499.64156 eV
One Electron Energy:        -8003.75555936 Eh         -217793.26117 eV
Two Electron Energy:         2509.74449187 Eh           68293.61960 eV

Virial components:
Potential Energy   :        -9835.22458495 Eh         -267630.06701 eV
Kinetic Energy     :         4913.54240413 Eh          133704.28621 eV
Virial Ratio       :            2.00165660


DFT components:
N(Alpha)           :       44.000001576584 electrons
N(Beta)            :       43.000001250708 electrons
N(Total)           :       87.000002827292 electrons
E(X)               :     -197.478298358052 Eh       
E(C)               :       -4.088084932994 Eh       
E(XC)              :     -201.566383291046 Eh       
DFET-embed. en.    :        0.000000000000 Eh       

---------------
SCF CONVERGENCE
---------------

  Last Energy change         ...    1.3461e-10  Tolerance :   1.0000e-08
  Last MAX-Density change    ...    5.5469e-07  Tolerance :   1.0000e-07
  Last RMS-Density change    ...    7.0463e-09  Tolerance :   5.0000e-09
  Last DIIS Error            ...    4.0180e-07  Tolerance :   5.0000e-07

             **** THE GBW FILE WAS UPDATED (Cu03N0_D3H.gbw) ****
             **** DENSITY FILE WAS UPDATED (Cu03N0_D3H.scfp) ****
             **** ENERGY FILE WAS UPDATED (Cu03N0_D3H.en.tmp) ****
----------------------
UHF SPIN CONTAMINATION
----------------------

Warning: in a DFT calculation there is little theoretical justification to 
         calculate <S**2> as in Hartree-Fock theory. We will do it anyways
         but you should keep in mind that the values have only limited relevance

Expectation value of <S**2>     :     0.765254
Ideal value S*(S+1) for S=0.5   :     0.750000
Deviation                       :     0.015254

             **** THE GBW FILE WAS UPDATED (Cu03N0_D3H.gbw) ****
             **** DENSITY FILE WAS UPDATED (Cu03N0_D3H.scfp) ****
----------------
ORBITAL ENERGIES
----------------
                 SPIN UP ORBITALS
  NO   OCC          E(Eh)            E(eV) 
   0   1.0000    -322.101501     -8764.8274 
   1   1.0000    -322.101496     -8764.8273 
   2   1.0000    -322.093608     -8764.6127 
   3   1.0000     -38.392921     -1044.7245 
   4   1.0000     -38.392887     -1044.7236 
   5   1.0000     -38.388407     -1044.6017 
   6   1.0000     -33.612133      -914.6326 
   7   1.0000     -33.612129      -914.6325 
   8   1.0000     -33.611766      -914.6226 
   9   1.0000     -33.611762      -914.6225 
  10   1.0000     -33.611607      -914.6183 
  11   1.0000     -33.611599      -914.6181 
  12   1.0000     -33.607600      -914.5093 
  13   1.0000     -33.607182      -914.4979 
  14   1.0000     -33.606701      -914.4848 
  15   1.0000      -4.151278      -112.9620 
  16   1.0000      -4.150938      -112.9528 
  17   1.0000      -4.144288      -112.7718 
  18   1.0000      -2.667426       -72.5844 
  19   1.0000      -2.664518       -72.5052 
  20   1.0000      -2.662800       -72.4585 
  21   1.0000      -2.661961       -72.4356 
  22   1.0000      -2.660106       -72.3852 
  23   1.0000      -2.659815       -72.3773 
  24   1.0000      -2.658141       -72.3317 
  25   1.0000      -2.656980       -72.3001 
  26   1.0000      -2.650543       -72.1250 
  27   1.0000      -0.279738        -7.6121 
  28   1.0000      -0.239676        -6.5219 
  29   1.0000      -0.237076        -6.4512 
  30   1.0000      -0.235575        -6.4103 
  31   1.0000      -0.231129        -6.2893 
  32   1.0000      -0.218297        -5.9402 
  33   1.0000      -0.215310        -5.8589 
  34   1.0000      -0.212729        -5.7887 
  35   1.0000      -0.202137        -5.5004 
  36   1.0000      -0.200576        -5.4579 
  37   1.0000      -0.198759        -5.4085 
  38   1.0000      -0.198033        -5.3887 
  39   1.0000      -0.194189        -5.2842 
  40   1.0000      -0.193461        -5.2643 
  41   1.0000      -0.192905        -5.2492 
  42   1.0000      -0.186186        -5.0664 
  43   1.0000      -0.130850        -3.5606 
  44   0.0000      -0.126487        -3.4419 
  45   0.0000      -0.063621        -1.7312 
  46   0.0000      -0.041882        -1.1397 
  47   0.0000      -0.021188        -0.5765 
  48   0.0000      -0.019116        -0.5202 
  49   0.0000       0.020161         0.5486 
  50   0.0000       0.021299         0.5796 
  51   0.0000       0.028317         0.7705 
  52   0.0000       0.030588         0.8323 
  53   0.0000       0.067196         1.8285 
  54   0.0000       0.080253         2.1838 
  55   0.0000       0.085564         2.3283 
  56   0.0000       0.096145         2.6162 
  57   0.0000       0.100378         2.7314 
  58   0.0000       0.102918         2.8005 
  59   0.0000       0.138217         3.7611 
  60   0.0000       0.141192         3.8420 
  61   0.0000       0.167160         4.5487 
  62   0.0000       0.173875         4.7314 
  63   0.0000       0.175408         4.7731 
  64   0.0000       0.185273         5.0415 
  65   0.0000       0.191051         5.1988 
  66   0.0000       0.192169         5.2292 
  67   0.0000       0.198974         5.4144 
  68   0.0000       0.201253         5.4764 
  69   0.0000       0.216479         5.8907 
  70   0.0000       0.265001         7.2110 
  71   0.0000       0.265436         7.2229 
  72   0.0000       0.288831         7.8595 
  73   0.0000       0.294237         8.0066 
  74   0.0000       0.313450         8.5294 
  75   0.0000       0.313494         8.5306 
  76   0.0000       0.321240         8.7414 
  77   0.0000       0.321899         8.7593 
  78   0.0000       0.415358        11.3025 
  79   0.0000       0.447369        12.1735 
  80   0.0000       0.448539        12.2054 
  81   0.0000       0.594230        16.1698 
  82   0.0000       0.599918        16.3246 
  83   0.0000       0.646924        17.6037 
  84   0.0000       0.647898        17.6302 
  85   0.0000       0.697000        18.9663 
  86   0.0000       0.701279        19.0828 
  87   0.0000       0.737833        20.0774 
  88   0.0000       0.745971        20.2989 
  89   0.0000       0.749309        20.3897 
  90   0.0000       0.762629        20.7522 
  91   0.0000       0.798051        21.7161 
  92   0.0000       0.798383        21.7251 
  93   0.0000       0.877209        23.8701 
  94   0.0000       0.882501        24.0141 
  95   0.0000       0.898964        24.4621 
  96   0.0000       0.899221        24.4691 
  97   0.0000       0.980860        26.6905 
  98   0.0000       0.992806        27.0156 
  99   0.0000       0.994425        27.0597 
 100   0.0000       1.037298        28.2263 
 101   0.0000       1.038576        28.2611 
 102   0.0000       1.207630        32.8613 
 103   0.0000       1.208070        32.8733 
 104   0.0000       1.232059        33.5260 
 105   0.0000       2.886235        78.5384 
 106   0.0000       2.930313        79.7379 
 107   0.0000       2.963893        80.6516 
 108   0.0000       2.966782        80.7302 
 109   0.0000       2.992341        81.4258 
 110   0.0000       3.000111        81.6372 
 111   0.0000       3.013850        82.0110 
 112   0.0000       3.014769        82.0360 
 113   0.0000       3.020748        82.1987 
 114   0.0000       3.137732        85.3820 
 115   0.0000       3.310433        90.0815 
 116   0.0000       3.323696        90.4424 
 117   0.0000       3.331587        90.6571 
 118   0.0000       3.334519        90.7369 
 119   0.0000       3.343018        90.9681 
 120   0.0000       3.344308        91.0033 
 121   0.0000       3.360561        91.4455 
 122   0.0000       3.361752        91.4779 
 123   0.0000       3.365318        91.5750 
 124   0.0000       3.366434        91.6053 
 125   0.0000       3.367511        91.6346 
 126   0.0000       3.370031        91.7032 
 127   0.0000       3.370433        91.7141 
 128   0.0000       3.372472        91.7696 
 129   0.0000       3.373960        91.8101 
 130   0.0000       3.375302        91.8466 
 131   0.0000       3.376172        91.8703 
 132   0.0000       3.378452        91.9324 
 133   0.0000       3.382378        92.0392 
 134   0.0000       3.404716        92.6470 
 135   0.0000       3.448337        93.8340 
 136   0.0000       3.495534        95.1183 
 137   0.0000       3.500816        95.2620 
 138   0.0000       3.594481        97.8108 
 139   0.0000       3.597814        97.9015 
 140   0.0000       3.598277        97.9141 
 141   0.0000       3.630678        98.7958 
 142   0.0000       3.647545        99.2547 
 143   0.0000       3.653639        99.4206 
 144   0.0000       3.671494        99.9064 
 145   0.0000       3.719389       101.2097 
 146   0.0000       3.726394       101.4003 
 147   0.0000       3.859013       105.0091 
 148   0.0000       3.860271       105.0433 
 149   0.0000       3.880287       105.5880 
 150   0.0000       3.920858       106.6920 
 151   0.0000       4.157068       113.1196 
 152   0.0000       4.159382       113.1825 
 153   0.0000      12.891504       350.7957 
 154   0.0000      12.891910       350.8067 
 155   0.0000      12.892891       350.8334 
 156   0.0000      12.892981       350.8359 
 157   0.0000      12.893024       350.8370 
 158   0.0000      12.893348       350.8458 
 159   0.0000      12.894215       350.8694 
 160   0.0000      12.894302       350.8718 
 161   0.0000      12.895389       350.9014 
 162   0.0000      12.895442       350.9028 
 163   0.0000      12.896094       350.9206 
 164   0.0000      12.896125       350.9214 
 165   0.0000      12.896203       350.9235 
 166   0.0000      12.896335       350.9271 
 167   0.0000      12.898615       350.9892 
 168   0.0000      12.898969       350.9988 
 169   0.0000      12.898972       350.9989 
 170   0.0000      12.899139       351.0034 
 171   0.0000      12.899155       351.0039 
 172   0.0000      12.899636       351.0169 
 173   0.0000      12.902094       351.0838 
 174   0.0000      12.903079       351.1106 
 175   0.0000      12.905636       351.1802 
 176   0.0000      12.905714       351.1823 
 177   0.0000      12.906881       351.2141 
 178   0.0000      12.908351       351.2541 
 179   0.0000      12.908394       351.2553 
 180   0.0000      12.979659       353.1945 
 181   0.0000      12.979763       353.1973 
 182   0.0000      12.979965       353.2028 
 183   0.0000      12.980737       353.2238 
 184   0.0000      12.980814       353.2259 
 185   0.0000      12.982048       353.2595 
 186   0.0000      12.983507       353.2992 
 187   0.0000      12.984147       353.3166 
 188   0.0000      12.984608       353.3292 
 189   0.0000      12.986898       353.3915 
 190   0.0000      12.989165       353.4531 
 191   0.0000      12.989857       353.4720 
 192   0.0000      12.991994       353.5301 
 193   0.0000      12.995510       353.6258 
 194   0.0000      12.996228       353.6453 
 195   0.0000      12.998592       353.7097 
 196   0.0000      13.001079       353.7774 
 197   0.0000      13.003523       353.8438 
 198   0.0000      13.078041       355.8716 
 199   0.0000      13.084343       356.0431 
 200   0.0000      13.084888       356.0579 

                 SPIN DOWN ORBITALS
  NO   OCC          E(Eh)            E(eV) 
   0   1.0000    -322.101333     -8764.8229 
   1   1.0000    -322.101328     -8764.8227 
   2   1.0000    -322.093098     -8764.5988 
   3   1.0000     -38.392965     -1044.7257 
   4   1.0000     -38.392930     -1044.7247 
   5   1.0000     -38.388491     -1044.6039 
   6   1.0000     -33.611932      -914.6272 
   7   1.0000     -33.611928      -914.6271 
   8   1.0000     -33.611926      -914.6270 
   9   1.0000     -33.611920      -914.6268 
  10   1.0000     -33.611579      -914.6176 
  11   1.0000     -33.611574      -914.6174 
  12   1.0000     -33.607258      -914.5000 
  13   1.0000     -33.607069      -914.4948 
  14   1.0000     -33.607056      -914.4945 
  15   1.0000      -4.151221      -112.9605 
  16   1.0000      -4.150880      -112.9512 
  17   1.0000      -4.144033      -112.7649 
  18   1.0000      -2.667134       -72.5764 
  19   1.0000      -2.664456       -72.5035 
  20   1.0000      -2.662511       -72.4506 
  21   1.0000      -2.661460       -72.4220 
  22   1.0000      -2.660230       -72.3885 
  23   1.0000      -2.659940       -72.3807 
  24   1.0000      -2.657827       -72.3231 
  25   1.0000      -2.655983       -72.2730 
  26   1.0000      -2.650428       -72.1218 
  27   1.0000      -0.275504        -7.4969 
  28   1.0000      -0.237214        -6.4549 
  29   1.0000      -0.234573        -6.3830 
  30   1.0000      -0.233114        -6.3434 
  31   1.0000      -0.225680        -6.1411 
  32   1.0000      -0.216638        -5.8950 
  33   1.0000      -0.213255        -5.8030 
  34   1.0000      -0.210022        -5.7150 
  35   1.0000      -0.201092        -5.4720 
  36   1.0000      -0.199689        -5.4338 
  37   1.0000      -0.198194        -5.3931 
  38   1.0000      -0.194540        -5.2937 
  39   1.0000      -0.190813        -5.1923 
  40   1.0000      -0.190114        -5.1733 
  41   1.0000      -0.189408        -5.1540 
  42   1.0000      -0.182018        -4.9530 
  43   0.0000      -0.118372        -3.2211 
  44   0.0000      -0.100596        -2.7373 
  45   0.0000      -0.055099        -1.4993 
  46   0.0000      -0.028970        -0.7883 
  47   0.0000      -0.004366        -0.1188 
  48   0.0000      -0.003102        -0.0844 
  49   0.0000       0.026296         0.7156 
  50   0.0000       0.035052         0.9538 
  51   0.0000       0.039333         1.0703 
  52   0.0000       0.045601         1.2409 
  53   0.0000       0.079650         2.1674 
  54   0.0000       0.093018         2.5312 
  55   0.0000       0.094795         2.5795 
  56   0.0000       0.101255         2.7553 
  57   0.0000       0.116931         3.1819 
  58   0.0000       0.118547         3.2258 
  59   0.0000       0.147924         4.0252 
  60   0.0000       0.158197         4.3048 
  61   0.0000       0.176833         4.8119 
  62   0.0000       0.179621         4.8877 
  63   0.0000       0.186890         5.0855 
  64   0.0000       0.197618         5.3775 
  65   0.0000       0.200711         5.4616 
  66   0.0000       0.201170         5.4741 
  67   0.0000       0.208435         5.6718 
  68   0.0000       0.213044         5.7972 
  69   0.0000       0.224735         6.1154 
  70   0.0000       0.274825         7.4784 
  71   0.0000       0.276529         7.5247 
  72   0.0000       0.297267         8.0891 
  73   0.0000       0.301778         8.2118 
  74   0.0000       0.322859         8.7854 
  75   0.0000       0.323898         8.8137 
  76   0.0000       0.325558         8.8589 
  77   0.0000       0.332025         9.0349 
  78   0.0000       0.426762        11.6128 
  79   0.0000       0.455098        12.3838 
  80   0.0000       0.459405        12.5011 
  81   0.0000       0.599203        16.3051 
  82   0.0000       0.602836        16.4040 
  83   0.0000       0.654818        17.8185 
  84   0.0000       0.655648        17.8411 
  85   0.0000       0.699665        19.0389 
  86   0.0000       0.710162        19.3245 
  87   0.0000       0.745940        20.2980 
  88   0.0000       0.751904        20.4603 
  89   0.0000       0.768128        20.9018 
  90   0.0000       0.771958        21.0061 
  91   0.0000       0.805189        21.9103 
  92   0.0000       0.809225        22.0201 
  93   0.0000       0.886411        24.1205 
  94   0.0000       0.891228        24.2515 
  95   0.0000       0.911394        24.8003 
  96   0.0000       0.912266        24.8240 
  97   0.0000       0.992251        27.0005 
  98   0.0000       1.004130        27.3238 
  99   0.0000       1.011341        27.5200 
 100   0.0000       1.044684        28.4273 
 101   0.0000       1.054540        28.6955 
 102   0.0000       1.214560        33.0499 
 103   0.0000       1.219793        33.1923 
 104   0.0000       1.248239        33.9663 
 105   0.0000       2.888668        78.6047 
 106   0.0000       2.932869        79.8074 
 107   0.0000       2.967250        80.7430 
 108   0.0000       2.971294        80.8530 
 109   0.0000       2.993825        81.4661 
 110   0.0000       3.004466        81.7557 
 111   0.0000       3.016268        82.0768 
 112   0.0000       3.019418        82.1625 
 113   0.0000       3.025636        82.3318 
 114   0.0000       3.141494        85.4844 
 115   0.0000       3.313643        90.1688 
 116   0.0000       3.325970        90.5042 
 117   0.0000       3.334263        90.7299 
 118   0.0000       3.336861        90.8006 
 119   0.0000       3.347023        91.0771 
 120   0.0000       3.348402        91.1147 
 121   0.0000       3.362496        91.4982 
 122   0.0000       3.363268        91.5192 
 123   0.0000       3.366343        91.6028 
 124   0.0000       3.367081        91.6229 
 125   0.0000       3.368346        91.6574 
 126   0.0000       3.369846        91.6982 
 127   0.0000       3.372135        91.7605 
 128   0.0000       3.375639        91.8558 
 129   0.0000       3.376094        91.8682 
 130   0.0000       3.377966        91.9191 
 131   0.0000       3.379160        91.9516 
 132   0.0000       3.380580        91.9903 
 133   0.0000       3.385645        92.1281 
 134   0.0000       3.408605        92.7529 
 135   0.0000       3.450842        93.9022 
 136   0.0000       3.497357        95.1679 
 137   0.0000       3.504424        95.3602 
 138   0.0000       3.595670        97.8431 
 139   0.0000       3.599504        97.9475 
 140   0.0000       3.600430        97.9727 
 141   0.0000       3.632116        98.8349 
 142   0.0000       3.649980        99.3210 
 143   0.0000       3.657470        99.5248 
 144   0.0000       3.674320        99.9833 
 145   0.0000       3.720989       101.2533 
 146   0.0000       3.731070       101.5276 
 147   0.0000       3.862853       105.1136 
 148   0.0000       3.864258       105.1518 
 149   0.0000       3.881822       105.6297 
 150   0.0000       3.925581       106.8205 
 151   0.0000       4.158329       113.1539 
 152   0.0000       4.162961       113.2799 
 153   0.0000      12.891735       350.8019 
 154   0.0000      12.892103       350.8119 
 155   0.0000      12.892637       350.8265 
 156   0.0000      12.892685       350.8278 
 157   0.0000      12.893186       350.8414 
 158   0.0000      12.893198       350.8418 
 159   0.0000      12.894132       350.8672 
 160   0.0000      12.894151       350.8677 
 161   0.0000      12.895079       350.8930 
 162   0.0000      12.895442       350.9028 
 163   0.0000      12.896314       350.9265 
 164   0.0000      12.896351       350.9276 
 165   0.0000      12.896503       350.9317 
 166   0.0000      12.896587       350.9340 
 167   0.0000      12.898671       350.9907 
 168   0.0000      12.898685       350.9911 
 169   0.0000      12.898834       350.9951 
 170   0.0000      12.898867       350.9960 
 171   0.0000      12.899081       351.0018 
 172   0.0000      12.900137       351.0306 
 173   0.0000      12.902094       351.0838 
 174   0.0000      12.903173       351.1132 
 175   0.0000      12.905298       351.1710 
 176   0.0000      12.905746       351.1832 
 177   0.0000      12.906629       351.2072 
 178   0.0000      12.907982       351.2440 
 179   0.0000      12.908115       351.2477 
 180   0.0000      12.979723       353.1962 
 181   0.0000      12.980158       353.2081 
 182   0.0000      12.980244       353.2104 
 183   0.0000      12.980884       353.2278 
 184   0.0000      12.980919       353.2288 
 185   0.0000      12.982381       353.2686 
 186   0.0000      12.983268       353.2927 
 187   0.0000      12.984425       353.3242 
 188   0.0000      12.984828       353.3351 
 189   0.0000      12.986590       353.3831 
 190   0.0000      12.989787       353.4701 
 191   0.0000      12.990730       353.4957 
 192   0.0000      12.992708       353.5495 
 193   0.0000      12.995304       353.6202 
 194   0.0000      12.996977       353.6657 
 195   0.0000      12.999339       353.7300 
 196   0.0000      13.001513       353.7892 
 197   0.0000      13.003503       353.8433 
 198   0.0000      13.078651       355.8882 
 199   0.0000      13.084669       356.0519 
 200   0.0000      13.085084       356.0632 

                    ********************************
                    * MULLIKEN POPULATION ANALYSIS *
                    ********************************

--------------------------------------------
MULLIKEN ATOMIC CHARGES AND SPIN POPULATIONS
--------------------------------------------
   0 Cu:   -0.066393    0.599017
   1 Cu:    0.033194    0.200489
   2 Cu:    0.033199    0.200494
Sum of atomic charges         :    0.0000000
Sum of atomic spin populations:    1.0000000

-----------------------------------------------------
MULLIKEN REDUCED ORBITAL CHARGES AND SPIN POPULATIONS
-----------------------------------------------------
CHARGE
  0 Cus       :     7.151690  s :     7.151690
      pz      :     4.021572  p :    12.112420
      px      :     4.019490
      py      :     4.071359
      dz2     :     1.980074  d :     9.802051
      dxz     :     1.993147
      dyz     :     1.978336
      dx2y2   :     1.963838
      dxy     :     1.886656
      f0      :     0.000026  f :     0.000230
      f+1     :     0.000013
      f-1     :     0.000032
      f+2     :     0.000017
      f-2     :     0.000031
      f+3     :     0.000050
      f-3     :     0.000062
      g0      :     0.000000  g :     0.000001
      g+1     :     0.000000
      g-1     :     0.000000
      g+2     :     0.000000
      g-2     :     0.000000
      g+3     :     0.000000
      g-3     :     0.000000
      g+4     :     0.000000
      g-4     :     0.000000
  1 Cus       :     6.913633  s :     6.913633
      pz      :     4.024656  p :    12.183490
      px      :     4.027680
      py      :     4.131155
      dz2     :     1.984260  d :     9.869405
      dxz     :     1.986562
      dyz     :     1.992123
      dx2y2   :     1.942896
      dxy     :     1.963564
      f0      :     0.000029  f :     0.000276
      f+1     :     0.000034
      f-1     :     0.000018
      f+2     :     0.000035
      f-2     :     0.000029
      f+3     :     0.000060
      f-3     :     0.000070
      g0      :     0.000000  g :     0.000001
      g+1     :     0.000000
      g-1     :     0.000000
      g+2     :     0.000000
      g-2     :     0.000000
      g+3     :     0.000000
      g-3     :     0.000000
      g+4     :     0.000000
      g-4     :     0.000000
  2 Cus       :     6.913630  s :     6.913630
      pz      :     4.024656  p :    12.183490
      px      :     4.027679
      py      :     4.131155
      dz2     :     1.984260  d :     9.869405
      dxz     :     1.986562
      dyz     :     1.992123
      dx2y2   :     1.942896
      dxy     :     1.963563
      f0      :     0.000029  f :     0.000276
      f+1     :     0.000034
      f-1     :     0.000018
      f+2     :     0.000035
      f-2     :     0.000029
      f+3     :     0.000060
      f-3     :     0.000070
      g0      :     0.000000  g :     0.000001
      g+1     :     0.000000
      g-1     :     0.000000
      g+2     :     0.000000
      g-2     :     0.000000
      g+3     :     0.000000
      g-3     :     0.000000
      g+4     :     0.000000
      g-4     :     0.000000

SPIN
  0 Cus       :     0.536188  s :     0.536188
      pz      :     0.000084  p :     0.037830
      px      :     0.005085
      py      :     0.032661
      dz2     :    -0.000596  d :     0.024998
      dxz     :     0.000810
      dyz     :     0.002162
      dx2y2   :     0.001327
      dxy     :     0.021296
      f0      :     0.000000  f :     0.000001
      f+1     :    -0.000000
      f-1     :     0.000001
      f+2     :     0.000001
      f-2     :     0.000000
      f+3     :    -0.000001
      f-3     :     0.000000
      g0      :     0.000000  g :     0.000000
      g+1     :     0.000000
      g-1     :     0.000000
      g+2     :     0.000000
      g-2     :     0.000000
      g+3     :     0.000000
      g-3     :    -0.000000
      g+4     :     0.000000
      g-4     :     0.000000
  1 Cus       :     0.105887  s :     0.105887
      pz      :    -0.000518  p :     0.092360
      px      :     0.001163
      py      :     0.091714
      dz2     :     0.000404  d :     0.002241
      dxz     :    -0.000724
      dyz     :    -0.000287
      dx2y2   :    -0.001372
      dxy     :     0.004219
      f0      :     0.000000  f :     0.000002
      f+1     :    -0.000000
      f-1     :     0.000001
      f+2     :    -0.000000
      f-2     :     0.000001
      f+3     :     0.000002
      f-3     :    -0.000001
      g0      :     0.000000  g :     0.000000
      g+1     :     0.000000
      g-1     :     0.000000
      g+2     :     0.000000
      g-2     :     0.000000
      g+3     :     0.000000
      g-3     :    -0.000000
      g+4     :    -0.000000
      g-4     :     0.000000
  2 Cus       :     0.105890  s :     0.105890
      pz      :    -0.000517  p :     0.092361
      px      :     0.001163
      py      :     0.091715
      dz2     :     0.000404  d :     0.002241
      dxz     :    -0.000724
      dyz     :    -0.000287
      dx2y2   :    -0.001372
      dxy     :     0.004220
      f0      :     0.000000  f :     0.000002
      f+1     :    -0.000000
      f-1     :     0.000001
      f+2     :    -0.000000
      f-2     :     0.000001
      f+3     :     0.000002
      f-3     :    -0.000001
      g0      :     0.000000  g :     0.000000
      g+1     :     0.000000
      g-1     :     0.000000
      g+2     :     0.000000
      g-2     :     0.000000
      g+3     :     0.000000
      g-3     :    -0.000000
      g+4     :    -0.000000
      g-4     :     0.000000


                     *******************************
                     * LOEWDIN POPULATION ANALYSIS *
                     *******************************

-------------------------------------------
LOEWDIN ATOMIC CHARGES AND SPIN POPULATIONS
-------------------------------------------
   0 Cu:   -0.018969    0.418134
   1 Cu:    0.009485    0.290932
   2 Cu:    0.009484    0.290934

----------------------------------------------------
LOEWDIN REDUCED ORBITAL CHARGES AND SPIN POPULATIONS
----------------------------------------------------
CHARGE
  0 Cus       :     6.678755  s :     6.678755
      pz      :     4.022112  p :    12.431002
      px      :     4.048619
      py      :     4.360272
      dz2     :     2.015043  d :     9.908632
      dxz     :     1.993905
      dyz     :     1.977522
      dx2y2   :     1.990113
      dxy     :     1.932048
      f0      :     0.000053  f :     0.000577
      f+1     :     0.000036
      f-1     :     0.000087
      f+2     :     0.000029
      f-2     :     0.000068
      f+3     :     0.000183
      f-3     :     0.000121
      g0      :     0.000000  g :     0.000002
      g+1     :     0.000000
      g-1     :     0.000000
      g+2     :     0.000000
      g-2     :     0.000000
      g+3     :     0.000000
      g-3     :     0.000000
      g+4     :     0.000000
      g-4     :     0.000000
  1 Cus       :     6.564743  s :     6.564743
      pz      :     4.024833  p :    12.439778
      px      :     4.132406
      py      :     4.282539
      dz2     :     2.012192  d :     9.985335
      dxz     :     1.986201
      dyz     :     1.991945
      dx2y2   :     1.993545
      dxy     :     2.001451
      f0      :     0.000057  f :     0.000657
      f+1     :     0.000075
      f-1     :     0.000052
      f+2     :     0.000067
      f-2     :     0.000049
      f+3     :     0.000224
      f-3     :     0.000132
      g0      :     0.000000  g :     0.000002
      g+1     :     0.000000
      g-1     :     0.000000
      g+2     :     0.000000
      g-2     :     0.000000
      g+3     :     0.000000
      g-3     :     0.000000
      g+4     :     0.000000
      g-4     :     0.000000
  2 Cus       :     6.564744  s :     6.564744
      pz      :     4.024833  p :    12.439778
      px      :     4.132406
      py      :     4.282539
      dz2     :     2.012192  d :     9.985335
      dxz     :     1.986201
      dyz     :     1.991945
      dx2y2   :     1.993544
      dxy     :     2.001451
      f0      :     0.000057  f :     0.000657
      f+1     :     0.000075
      f-1     :     0.000052
      f+2     :     0.000067
      f-2     :     0.000049
      f+3     :     0.000224
      f-3     :     0.000132
      g0      :     0.000000  g :     0.000002
      g+1     :     0.000000
      g-1     :     0.000000
      g+2     :     0.000000
      g-2     :     0.000000
      g+3     :     0.000000
      g-3     :     0.000000
      g+4     :     0.000000
      g-4     :     0.000000

SPIN
  0 Cus       :     0.211870  s :     0.211870
      pz      :     0.000636  p :     0.174595
      px      :     0.001202
      py      :     0.172757
      dz2     :     0.003609  d :     0.031646
      dxz     :    -0.000211
      dyz     :     0.001522
      dx2y2   :     0.010036
      dxy     :     0.016690
      f0      :     0.000001  f :     0.000022
      f+1     :     0.000001
      f-1     :     0.000014
      f+2     :     0.000001
      f-2     :     0.000001
      f+3     :     0.000005
      f-3     :     0.000000
      g0      :     0.000000  g :     0.000000
      g+1     :     0.000000
      g-1     :     0.000000
      g+2     :     0.000000
      g-2     :     0.000000
      g+3     :     0.000000
      g-3     :     0.000000
      g+4     :     0.000000
      g-4     :     0.000000
  1 Cus       :     0.047814  s :     0.047814
      pz      :     0.000018  p :     0.204598
      px      :     0.000431
      py      :     0.204150
      dz2     :     0.002703  d :     0.038483
      dxz     :    -0.000868
      dyz     :    -0.000126
      dx2y2   :     0.016284
      dxy     :     0.020490
      f0      :     0.000001  f :     0.000037
      f+1     :    -0.000001
      f-1     :     0.000010
      f+2     :     0.000000
      f-2     :     0.000001
      f+3     :     0.000025
      f-3     :     0.000001
      g0      :     0.000000  g :     0.000000
      g+1     :     0.000000
      g-1     :     0.000000
      g+2     :     0.000000
      g-2     :     0.000000
      g+3     :     0.000000
      g-3     :    -0.000000
      g+4     :     0.000000
      g-4     :     0.000000
  2 Cus       :     0.047816  s :     0.047816
      pz      :     0.000018  p :     0.204598
      px      :     0.000431
      py      :     0.204150
      dz2     :     0.002703  d :     0.038482
      dxz     :    -0.000868
      dyz     :    -0.000126
      dx2y2   :     0.016284
      dxy     :     0.020490
      f0      :     0.000001  f :     0.000037
      f+1     :    -0.000001
      f-1     :     0.000010
      f+2     :     0.000000
      f-2     :     0.000001
      f+3     :     0.000025
      f-3     :     0.000001
      g0      :     0.000000  g :     0.000000
      g+1     :     0.000000
      g-1     :     0.000000
      g+2     :     0.000000
      g-2     :     0.000000
      g+3     :     0.000000
      g-3     :    -0.000000
      g+4     :     0.000000
      g-4     :     0.000000


                      *****************************
                      * MAYER POPULATION ANALYSIS *
                      *****************************

  NA   - Mulliken gross atomic population
  ZA   - Total nuclear charge
  QA   - Mulliken gross atomic charge
  VA   - Mayer's total valence
  BVA  - Mayer's bonded valence
  FA   - Mayer's free valence

  ATOM       NA         ZA         QA         VA         BVA        FA
  0 Cu    29.0664    29.0000    -0.0664     1.4126     1.0522     0.3604
  1 Cu    28.9668    29.0000     0.0332     1.4164     1.3326     0.0838
  2 Cu    28.9668    29.0000     0.0332     1.4164     1.3326     0.0838

  Mayer bond orders larger than 0.100000
B(  0-Cu,  1-Cu) :   0.5261 B(  0-Cu,  2-Cu) :   0.5261 B(  1-Cu,  2-Cu) :   0.8065 


-------
TIMINGS
-------

Total SCF time: 0 days 0 hours 0 min 5 sec 

Total time                  ....       5.772 sec
Sum of individual times     ....       5.552 sec  ( 96.2%)

Fock matrix formation       ....       4.697 sec  ( 81.4%)
  Split-RI-J                ....       2.655 sec  ( 56.5% of F)
  XC integration            ....       1.795 sec  ( 38.2% of F)
    Basis function eval.    ....       0.095 sec  (  5.3% of XC)
    Density eval.           ....       0.261 sec  ( 14.5% of XC)
    XC-Functional eval.     ....       0.067 sec  (  3.7% of XC)
    XC-Potential eval.      ....       0.539 sec  ( 30.0% of XC)
Diagonalization             ....       0.319 sec  (  5.5%)
Density matrix formation    ....       0.039 sec  (  0.7%)
Population analysis         ....       0.015 sec  (  0.3%)
Initial guess               ....       0.101 sec  (  1.7%)
Orbital Transformation      ....       0.000 sec  (  0.0%)
Orbital Orthonormalization  ....       0.000 sec  (  0.0%)
DIIS solution               ....       0.117 sec  (  2.0%)
Grid generation             ....       0.264 sec  (  4.6%)


-------------------------------------------------------------------------------
                          DFT DISPERSION CORRECTION                            
                                                                               
                              DFTD3 V3.1  Rev 1                                
                          USING Becke-Johnson damping                          
-------------------------------------------------------------------------------
The TPSS functional is recognized
Active option DFTDOPT                   ...         4   

molecular C6(AA) [au] = 1575.004599 


            DFT-D V3
 parameters
 s6 scaling factor         :     1.0000 
 a1 scaling factor         :     0.4535 
 s8 scaling factor         :     1.9435 
 a2 scaling factor         :     4.4752 
 ad hoc parameters k1-k3   :    16.0000     1.3333    -4.0000 

 Edisp/kcal,au: -2.588163157457  -0.004124500089 
 E6   /kcal   :  -0.810801340 
 E8   /kcal   :  -1.777361818 
 % E8         :  68.672711479 

-------------------------   ----------------
Dispersion correction           -0.004124500
-------------------------   ----------------


-------------------------   --------------------
FINAL SINGLE POINT ENERGY     -4921.686305316081
-------------------------   --------------------



           ************************************************************
           *        Program running with 24 parallel MPI-processes    *
           *              working on a common directory               *
           ************************************************************
------------------------------------------------------------------------------
                         ORCA SCF GRADIENT CALCULATION
------------------------------------------------------------------------------

Gradient of the Kohn-Sham DFT energy:
Kohn-Sham wavefunction type      ... UKS
Hartree-Fock exchange scaling    ...    0.000
Number of operators              ...    2
Number of atoms                  ...    3
Basis set dimensions             ...  201
Integral neglect threshold       ... 2.5e-11
Integral primitive cutoff        ... 2.5e-12

Nuclear repulsion gradient       ... done
One Electron Gradient            ... done
Pre-screening matrix             ... done
RI-J gradient                    ... done
Exchange-correlation gradient    ... done
Dispersion correction            ... done

------------------
CARTESIAN GRADIENT
------------------

   1   Cu  :   -0.000000053   -0.011631463    0.000000015
   2   Cu  :    0.005532974    0.005979167   -0.000000013
   3   Cu  :   -0.005532901    0.005979290    0.000000004

Difference to translation invariance:
           :    0.0000000195    0.0003269937    0.0000000058

Norm of the cartesian gradient     ...    0.0163713189
RMS gradient                       ...    0.0054571063
MAX gradient                       ...    0.0116314635

-------
TIMINGS
-------

Total SCF gradient time            ...        0.741 sec

One electron gradient       ....       0.006 sec  (  0.8%)
Prescreening matrices       ....       0.136 sec  ( 18.4%)
RI-J Coulomb gradient       ....       0.192 sec  ( 25.9%)
XC gradient                 ....       0.158 sec  ( 21.4%)
------------------------------------------------------------------------------
                         ORCA GEOMETRY RELAXATION STEP
------------------------------------------------------------------------------

Reading the OPT-File                    .... done
Getting information on internals        .... done
Copying old internal coords+grads       .... done
Making the new internal coordinates     .... (new redundants).... done
Validating the new internal coordinates .... (new redundants).... done
Calculating the B-matrix                .... done
Calculating the G,G- and P matrices     .... done
Transforming gradient to internals      .... done
Projecting the internal gradient        .... done
Number of atoms                         ....   3
Number of internal coordinates          ....   6
Current Energy                          .... -4921.686305316 Eh
Current gradient norm                   ....     0.016371319 Eh/bohr
Maximum allowed component of the step   ....  0.300
Current trust radius                    ....  0.300
Evaluating the initial hessian          ....  (Almloef) done
Projecting the Hessian                  .... done
Forming the augmented Hessian           .... done
Diagonalizing the augmented Hessian     .... done
Last element of RFO vector              ....  0.999978916
Lowest eigenvalues of augmented Hessian:
 -0.000079398  1.877394735  1.877472278  2.003792515 1000.000000000
Length of the computed step             ....  0.006493827
The final length of the internal step   ....  0.006493827
Converting the step to cartesian space:
 Initial RMS(Int)=    0.0026510938
Transforming coordinates:
 Iter   0:  RMS(Cart)=    0.0016302081 RMS(Int)=    0.0026516430
 Iter   1:  RMS(Cart)=    0.0000004952 RMS(Int)=    0.0000010034
 Iter   2:  RMS(Cart)=    0.0000000001 RMS(Int)=    0.0000000003
done
Storing new coordinates                 .... done

                                .--------------------.
          ----------------------|Geometry convergence|-------------------------
          Item                value                   Tolerance       Converged
          ---------------------------------------------------------------------
          RMS gradient        0.0049919868            0.0001000000      NO
          MAX gradient        0.0075223595            0.0003000000      NO
          RMS step            0.0026510938            0.0020000000      NO
          MAX step            0.0040585330            0.0040000000      NO
          ........................................................
          Max(Bonds)      0.0021      Max(Angles)    0.11
          Max(Dihed)        0.00      Max(Improp)    0.00
          ---------------------------------------------------------------------

The optimization has not yet converged - more geometry cycles are needed


    ---------------------------------------------------------------------------
                         Redundant Internal Coordinates
                            (Angstroem and degrees)

        Definition                    Value    dE/dq     Step     New-Value
    ----------------------------------------------------------------------------
     1. B(Cu  1,Cu  0)                2.3328 -0.006078  0.0017    2.3345   
     2. B(Cu  2,Cu  1)                2.3328  0.007522 -0.0021    2.3306   
     3. B(Cu  2,Cu  0)                2.3328 -0.006079  0.0017    2.3345   
     4. A(Cu  1,Cu  0,Cu  2)           60.00  0.003563   -0.11     59.89   
     5. A(Cu  0,Cu  1,Cu  2)           60.00 -0.001781    0.05     60.05   
     6. A(Cu  0,Cu  2,Cu  1)           60.00 -0.001781    0.05     60.05   
    ----------------------------------------------------------------------------

         *************************************************************
         *                GEOMETRY OPTIMIZATION CYCLE   2            *
         *************************************************************
---------------------------------
CARTESIAN COORDINATES (ANGSTROEM)
---------------------------------
  Cu     0.000000    1.348538    0.000000
  Cu     1.165313   -0.674269    0.000000
  Cu    -1.165313   -0.674269    0.000000

----------------------------
CARTESIAN COORDINATES (A.U.)
----------------------------
  NO LB      ZA    FRAG     MASS         X           Y           Z
   0 Cu   29.0000    0    63.550    0.000000    2.548368    0.000000
   1 Cu   29.0000    0    63.550    2.202122   -1.274184    0.000000
   2 Cu   29.0000    0    63.550   -2.202122   -1.274184    0.000000

--------------------------------
INTERNAL COORDINATES (ANGSTROEM)
--------------------------------
 Cu     0   0   0     0.000000000000     0.00000000     0.00000000
 Cu     1   0   0     2.334460339038     0.00000000     0.00000000
 Cu     2   1   0     2.330625976558    60.05431967     0.00000000

---------------------------
INTERNAL COORDINATES (A.U.)
---------------------------
 Cu     0   0   0     0.000000000000     0.00000000     0.00000000
 Cu     1   0   0     4.411490711284     0.00000000     0.00000000
 Cu     2   1   0     4.404244816297    60.05431967     0.00000000



           ************************************************************
           *        Program running with 24 parallel MPI-processes    *
           *              working on a common directory               *
           ************************************************************
 One Electron integrals                  ... done
 Pre-screening matrix                    ... done


           ************************************************************
           *        Program running with 24 parallel MPI-processes    *
           *              working on a common directory               *
           ************************************************************

Diagonalization of the overlap matrix:
Smallest eigenvalue                        ... 7.618e-04
Time for diagonalization                   ...    0.009 sec
Threshold for overlap eigenvalues          ... 1.000e-08
Number of eigenvalues below threshold      ... 0
Time for construction of square roots      ...    0.005 sec
Total time needed                          ...    0.014 sec

-------------------
DFT GRID GENERATION
-------------------

General Integration Accuracy     IntAcc      ...  4.670
Radial Grid Type                 RadialGrid  ... Gauss-Chebyshev
Angular Grid (max. acc.)         AngularGrid ... Lebedev-302
Angular grid pruning method      GridPruning ... 3 (G Style)
Weight generation scheme         WeightScheme... Becke
Basis function cutoff            BFCut       ...    1.0000e-11
Integration weight cutoff        WCut        ...    1.0000e-14
Grids for H and He will be reduced by one unit

# of grid points (after initial pruning)     ...  28668 (   0.0 sec)
# of grid points (after weights+screening)   ...  28568 (   0.0 sec)
nearest neighbour list constructed           ...    0.0 sec
Grid point re-assignment to atoms done       ...    0.0 sec
Grid point division into batches done        ...    0.2 sec
Reduced shell lists constructed in    0.2 sec

Total number of grid points                  ...    28568
Total number of batches                      ...      448
Average number of points per batch           ...       63
Average number of grid points per atom       ...     9523
Average number of shells per batch           ...    13.75 (24.12%)
Average number of basis functions per batch  ...    38.75 (19.28%)
Average number of large shells per batch     ...    10.10 (73.45%)
Average number of large basis fcns per batch ...    28.00 (72.26%)
Maximum spatial batch extension              ...  20.07, 17.16, 22.17 au
Average spatial batch extension              ...   0.56,  0.48,  0.54 au

Time for grid setup =    0.252 sec

--------------
SCF ITERATIONS
--------------
ITER       Energy         Delta-E        Max-DP      RMS-DP      [F,P]     Damp
               ***  Starting incremental Fock matrix formation  ***
  0  -4921.6822597154   0.000000000000 0.00008261  0.00000118  0.0008267 0.7000
  1  -4921.6822598310  -0.000000115597 0.00007156  0.00000109  0.0005789 0.7000
                               ***Turning on DIIS***
  2  -4921.6822598757  -0.000000044683 0.00018493  0.00000336  0.0004052 0.0000
  3  -4921.6822600059  -0.000000130187 0.00019597  0.00000306  0.0001275 0.0000
  4  -4921.6822596500   0.000000355857 0.00021587  0.00000273  0.0006694 0.0000
  5  -4921.6822600240  -0.000000374017 0.00004754  0.00000041  0.0000159 0.0000
  6  -4921.6822600429  -0.000000018832 0.00002684  0.00000023  0.0000178 0.0000
  7  -4921.6822600159   0.000000027001 0.00000380  0.00000005  0.0000040 0.0000
  8  -4921.6822600893  -0.000000073384 0.00000262  0.00000003  0.0000034 0.0000
  9  -4921.6822600164   0.000000072876 0.00000363  0.00000004  0.0000014 0.0000
                            ***DIIS convergence achieved***

               *****************************************************
               *                     SUCCESS                       *
               *           SCF CONVERGED AFTER  10 CYCLES          *
               *****************************************************

Total Energy       :        -4921.68226002 Eh         -133925.78295 eV
  Last Energy change         ...   -4.7394e-09  Tolerance :   1.0000e-08
  Last MAX-Density change    ...    2.3812e-06  Tolerance :   1.0000e-07
             **** THE GBW FILE WAS UPDATED (Cu03N0_D3H.gbw) ****
             **** DENSITY FILE WAS UPDATED (Cu03N0_D3H.scfp) ****
             **** ENERGY FILE WAS UPDATED (Cu03N0_D3H.en.tmp) ****
----------------------
UHF SPIN CONTAMINATION
----------------------

Warning: in a DFT calculation there is little theoretical justification to 
         calculate <S**2> as in Hartree-Fock theory. We will do it anyways
         but you should keep in mind that the values have only limited relevance

Expectation value of <S**2>     :     0.765224
Ideal value S*(S+1) for S=0.5   :     0.750000
Deviation                       :     0.015224

             **** THE GBW FILE WAS UPDATED (Cu03N0_D3H.gbw) ****
             **** DENSITY FILE WAS UPDATED (Cu03N0_D3H.scfp) ****
Total SCF time: 0 days 0 hours 0 min 2 sec 


-------------------------------------------------------------------------------
                          DFT DISPERSION CORRECTION                            
                                                                               
                              DFTD3 V3.1  Rev 1                                
                          USING Becke-Johnson damping                          
-------------------------------------------------------------------------------
-------------------------   ----------------
Dispersion correction           -0.004124456
-------------------------   ----------------


-------------------------   --------------------
FINAL SINGLE POINT ENERGY     -4921.686384477441
-------------------------   --------------------



           ************************************************************
           *        Program running with 24 parallel MPI-processes    *
           *              working on a common directory               *
           ************************************************************
------------------------------------------------------------------------------
                         ORCA SCF GRADIENT CALCULATION
------------------------------------------------------------------------------

Gradient of the Kohn-Sham DFT energy:
Kohn-Sham wavefunction type      ... UKS
Hartree-Fock exchange scaling    ...    0.000
Number of operators              ...    2
Number of atoms                  ...    3
Basis set dimensions             ...  201
Integral neglect threshold       ... 2.5e-11
Integral primitive cutoff        ... 2.5e-12

Nuclear repulsion gradient       ... done
One Electron Gradient            ... done
Pre-screening matrix             ... done
RI-J gradient                    ... done
Exchange-correlation gradient    ... done
Dispersion correction            ... done

------------------
CARTESIAN GRADIENT
------------------

   1   Cu  :   -0.000000110   -0.011313795    0.000000032
   2   Cu  :    0.005401915    0.005821501    0.000000008
   3   Cu  :   -0.005401819    0.005821712   -0.000000015

Difference to translation invariance:
           :   -0.0000000144    0.0003294183    0.0000000247

Norm of the cartesian gradient     ...    0.0159419102
RMS gradient                       ...    0.0053139701
MAX gradient                       ...    0.0113137950

-------
TIMINGS
-------

Total SCF gradient time            ...        0.679 sec

One electron gradient       ....       0.011 sec  (  1.6%)
Prescreening matrices       ....       0.137 sec  ( 20.2%)
RI-J Coulomb gradient       ....       0.133 sec  ( 19.6%)
XC gradient                 ....       0.152 sec  ( 22.4%)
------------------------------------------------------------------------------
                         ORCA GEOMETRY RELAXATION STEP
------------------------------------------------------------------------------

Reading the OPT-File                    .... done
Getting information on internals        .... done
Copying old internal coords+grads       .... done
Making the new internal coordinates     .... (new redundants).... done
Validating the new internal coordinates .... (new redundants).... done
Calculating the B-matrix                .... done
Calculating the G,G- and P matrices     .... done
Transforming gradient to internals      .... done
Projecting the internal gradient        .... done
Number of atoms                         ....   3
Number of internal coordinates          ....   6
Current Energy                          .... -4921.686384477 Eh
Current gradient norm                   ....     0.015941910 Eh/bohr
Maximum allowed component of the step   ....  0.300
Current trust radius                    ....  0.300
Updating the Hessian (BFGS)             .... done
Forming the augmented Hessian           .... done
Diagonalizing the augmented Hessian     .... done
Last element of RFO vector              ....  0.975272284
Lowest eigenvalues of augmented Hessian:
 -0.002697337  0.052525931  1.877394737  1.998215125 999.941736295
Length of the computed step             ....  0.226610280
The final length of the internal step   ....  0.226610280
Converting the step to cartesian space:
 Initial RMS(Int)=    0.0925132594
Transforming coordinates:
 Iter   0:  RMS(Cart)=    0.0568718934 RMS(Int)=    0.0931712932
 Iter   1:  RMS(Cart)=    0.0005862158 RMS(Int)=    0.0011979106
 Iter   2:  RMS(Cart)=    0.0000047038 RMS(Int)=    0.0000099755
 Iter   3:  RMS(Cart)=    0.0000000241 RMS(Int)=    0.0000000394
done
Storing new coordinates                 .... done

                                .--------------------.
          ----------------------|Geometry convergence|-------------------------
          Item                value                   Tolerance       Converged
          ---------------------------------------------------------------------
          Energy change      -0.0000791614            0.0000050000      NO
          RMS gradient        0.0048598090            0.0001000000      NO
          MAX gradient        0.0073334771            0.0003000000      NO
          RMS step            0.0925132594            0.0020000000      NO
          MAX step            0.1417878746            0.0040000000      NO
          ........................................................
          Max(Bonds)      0.0750      Max(Angles)    3.79
          Max(Dihed)        0.00      Max(Improp)    0.00
          ---------------------------------------------------------------------

The optimization has not yet converged - more geometry cycles are needed


    ---------------------------------------------------------------------------
                         Redundant Internal Coordinates
                            (Angstroem and degrees)

        Definition                    Value    dE/dq     Step     New-Value
    ----------------------------------------------------------------------------
     1. B(Cu  1,Cu  0)                2.3345 -0.005913  0.0588    2.3932   
     2. B(Cu  2,Cu  1)                2.3306  0.007333 -0.0750    2.2556   
     3. B(Cu  2,Cu  0)                2.3345 -0.005914  0.0588    2.3932   
     4. A(Cu  1,Cu  0,Cu  2)           59.89  0.003463   -3.79     56.10   
     5. A(Cu  0,Cu  1,Cu  2)           60.05 -0.001732    1.90     61.95   
     6. A(Cu  0,Cu  2,Cu  1)           60.05 -0.001731    1.90     61.95   
    ----------------------------------------------------------------------------

         *************************************************************
         *                GEOMETRY OPTIMIZATION CYCLE   3            *
         *************************************************************
---------------------------------
CARTESIAN COORDINATES (ANGSTROEM)
---------------------------------
  Cu     0.000001    1.407463    0.000000
  Cu     1.127592   -0.703731    0.000000
  Cu    -1.127592   -0.703732    0.000000

----------------------------
CARTESIAN COORDINATES (A.U.)
----------------------------
  NO LB      ZA    FRAG     MASS         X           Y           Z
   0 Cu   29.0000    0    63.550    0.000001    2.659719    0.000000
   1 Cu   29.0000    0    63.550    2.130839   -1.329858    0.000000
   2 Cu   29.0000    0    63.550   -2.130841   -1.329861    0.000000

--------------------------------
INTERNAL COORDINATES (ANGSTROEM)
--------------------------------
 Cu     0   0   0     0.000000000000     0.00000000     0.00000000
 Cu     1   0   0     2.393449125533     0.00000000     0.00000000
 Cu     2   1   0     2.255183884576    61.89330131     0.00000000

---------------------------
INTERNAL COORDINATES (A.U.)
---------------------------
 Cu     0   0   0     0.000000000000     0.00000000     0.00000000
 Cu     1   0   0     4.522963362730     0.00000000     0.00000000
 Cu     2   1   0     4.261679923481    61.89330131     0.00000000



           ************************************************************
           *        Program running with 24 parallel MPI-processes    *
           *              working on a common directory               *
           ************************************************************
 One Electron integrals                  ... done
 Pre-screening matrix                    ... done


           ************************************************************
           *        Program running with 24 parallel MPI-processes    *
           *              working on a common directory               *
           ************************************************************

Diagonalization of the overlap matrix:
Smallest eigenvalue                        ... 7.092e-04
Time for diagonalization                   ...    0.007 sec
Threshold for overlap eigenvalues          ... 1.000e-08
Number of eigenvalues below threshold      ... 0
Time for construction of square roots      ...    0.005 sec
Total time needed                          ...    0.012 sec

-------------------
DFT GRID GENERATION
-------------------

General Integration Accuracy     IntAcc      ...  4.670
Radial Grid Type                 RadialGrid  ... Gauss-Chebyshev
Angular Grid (max. acc.)         AngularGrid ... Lebedev-302
Angular grid pruning method      GridPruning ... 3 (G Style)
Weight generation scheme         WeightScheme... Becke
Basis function cutoff            BFCut       ...    1.0000e-11
Integration weight cutoff        WCut        ...    1.0000e-14
Grids for H and He will be reduced by one unit

# of grid points (after initial pruning)     ...  28668 (   0.0 sec)
# of grid points (after weights+screening)   ...  28576 (   0.0 sec)
nearest neighbour list constructed           ...    0.0 sec
Grid point re-assignment to atoms done       ...    0.0 sec
Grid point division into batches done        ...    0.2 sec
Reduced shell lists constructed in    0.2 sec

Total number of grid points                  ...    28576
Total number of batches                      ...      448
[...]
      dyz     :     1.979004
      dx2y2   :     1.995230
      dxy     :     1.935725
      f0      :     0.000038  f :     0.000430
      f+1     :     0.000024
      f-1     :     0.000071
      f+2     :     0.000024
      f-2     :     0.000046
      f+3     :     0.000138
      f-3     :     0.000088
      g0      :     0.000000  g :     0.000002
      g+1     :     0.000000
      g-1     :     0.000000
      g+2     :     0.000000
      g-2     :     0.000000
      g+3     :     0.000000
      g-3     :     0.000000
      g+4     :     0.000000
      g-4     :     0.000000
  1 Cus       :     6.573934  s :     6.573934
      pz      :     4.025301  p :    12.433001
      px      :     4.132928
      py      :     4.274773
      dz2     :     2.012608  d :     9.985914
      dxz     :     1.984919
      dyz     :     1.992999
      dx2y2   :     1.996218
      dxy     :     1.999170
      f0      :     0.000060  f :     0.000673
      f+1     :     0.000085
      f-1     :     0.000045
      f+2     :     0.000081
      f-2     :     0.000040
      f+3     :     0.000222
      f-3     :     0.000140
      g0      :     0.000000  g :     0.000002
      g+1     :     0.000000
      g-1     :     0.000000
      g+2     :     0.000000
      g-2     :     0.000000
      g+3     :     0.000000
      g-3     :     0.000000
      g+4     :     0.000000
      g-4     :     0.000000
  2 Cus       :     6.573936  s :     6.573936
      pz      :     4.025301  p :    12.433001
      px      :     4.132928
      py      :     4.274772
      dz2     :     2.012608  d :     9.985913
      dxz     :     1.984919
      dyz     :     1.992999
      dx2y2   :     1.996217
      dxy     :     1.999170
      f0      :     0.000060  f :     0.000673
      f+1     :     0.000085
      f-1     :     0.000045
      f+2     :     0.000081
      f-2     :     0.000040
      f+3     :     0.000222
      f-3     :     0.000140
      g0      :     0.000000  g :     0.000002
      g+1     :     0.000000
      g-1     :     0.000000
      g+2     :     0.000000
      g-2     :     0.000000
      g+3     :     0.000000
      g-3     :     0.000000
      g+4     :     0.000000
      g-4     :     0.000000

SPIN
  0 Cus       :     0.235519  s :     0.235519
      pz      :     0.000582  p :     0.159211
      px      :     0.001161
      py      :     0.157468
      dz2     :     0.003141  d :     0.028783
      dxz     :    -0.000191
      dyz     :     0.001306
      dx2y2   :     0.010317
      dxy     :     0.014209
      f0      :     0.000001  f :     0.000020
      f+1     :     0.000001
      f-1     :     0.000011
      f+2     :     0.000001
      f-2     :     0.000001
      f+3     :     0.000004
      f-3     :     0.000002
      g0      :     0.000000  g :     0.000000
      g+1     :     0.000000
      g-1     :     0.000000
      g+2     :     0.000000
      g-2     :     0.000000
      g+3     :     0.000000
      g-3     :    -0.000000
      g+4     :     0.000000
      g-4     :     0.000000
  1 Cus       :     0.048336  s :     0.048336
      pz      :     0.000156  p :     0.199050
      px      :     0.000793
      py      :     0.198101
      dz2     :     0.002704  d :     0.040815
      dxz     :    -0.000855
      dyz     :    -0.000153
      dx2y2   :     0.019375
      dxy     :     0.019743
      f0      :     0.000001  f :     0.000032
      f+1     :    -0.000001
      f-1     :     0.000009
      f+2     :     0.000000
      f-2     :     0.000001
      f+3     :     0.000021
      f-3     :     0.000000
      g0      :     0.000000  g :     0.000000
      g+1     :     0.000000
      g-1     :     0.000000
      g+2     :     0.000000
      g-2     :     0.000000
      g+3     :     0.000000
      g-3     :    -0.000000
      g+4     :     0.000000
      g-4     :     0.000000
  2 Cus       :     0.048339  s :     0.048339
      pz      :     0.000156  p :     0.199050
      px      :     0.000793
      py      :     0.198101
      dz2     :     0.002704  d :     0.040814
      dxz     :    -0.000855
      dyz     :    -0.000153
      dx2y2   :     0.019375
      dxy     :     0.019743
      f0      :     0.000001  f :     0.000032
      f+1     :    -0.000001
      f-1     :     0.000009
      f+2     :     0.000000
      f-2     :     0.000001
      f+3     :     0.000021
      f-3     :     0.000000
      g0      :     0.000000  g :     0.000000
      g+1     :     0.000000
      g-1     :     0.000000
      g+2     :     0.000000
      g-2     :     0.000000
      g+3     :     0.000000
      g-3     :    -0.000000
      g+4     :     0.000000
      g-4     :     0.000000


                      *****************************
                      * MAYER POPULATION ANALYSIS *
                      *****************************

  NA   - Mulliken gross atomic population
  ZA   - Total nuclear charge
  QA   - Mulliken gross atomic charge
  VA   - Mayer's total valence
  BVA  - Mayer's bonded valence
  FA   - Mayer's free valence

  ATOM       NA         ZA         QA         VA         BVA        FA
  0 Cu    29.0488    29.0000    -0.0488     1.3423     0.9657     0.3766
  1 Cu    28.9756    29.0000     0.0244     1.4165     1.3371     0.0795
  2 Cu    28.9756    29.0000     0.0244     1.4165     1.3371     0.0795

  Mayer bond orders larger than 0.100000
B(  0-Cu,  1-Cu) :   0.4829 B(  0-Cu,  2-Cu) :   0.4829 B(  1-Cu,  2-Cu) :   0.8542 


-------
TIMINGS
-------

Total SCF time: 0 days 0 hours 0 min 2 sec 

Total time                  ....       2.529 sec
Sum of individual times     ....       2.314 sec  ( 91.5%)

Fock matrix formation       ....       1.816 sec  ( 71.8%)
  Split-RI-J                ....       1.119 sec  ( 61.6% of F)
  XC integration            ....       0.503 sec  ( 27.7% of F)
    Basis function eval.    ....       0.038 sec  (  7.6% of XC)
    Density eval.           ....       0.107 sec  ( 21.4% of XC)
    XC-Functional eval.     ....       0.027 sec  (  5.3% of XC)
    XC-Potential eval.      ....       0.192 sec  ( 38.1% of XC)
Diagonalization             ....       0.143 sec  (  5.6%)
Density matrix formation    ....       0.017 sec  (  0.7%)
Population analysis         ....       0.012 sec  (  0.5%)
Initial guess               ....       0.024 sec  (  1.0%)
Orbital Transformation      ....       0.000 sec  (  0.0%)
Orbital Orthonormalization  ....       0.017 sec  (  0.7%)
DIIS solution               ....       0.047 sec  (  1.9%)
Grid generation             ....       0.255 sec  ( 10.1%)


-------------------------------------------------------------------------------
                          DFT DISPERSION CORRECTION                            
                                                                               
                              DFTD3 V3.1  Rev 1                                
                          USING Becke-Johnson damping                          
-------------------------------------------------------------------------------
The TPSS functional is recognized
Active option DFTDOPT                   ...         4   

molecular C6(AA) [au] = 1575.020454 


            DFT-D V3
 parameters
 s6 scaling factor         :     1.0000 
 a1 scaling factor         :     0.4535 
 s8 scaling factor         :     1.9435 
 a2 scaling factor         :     4.4752 
 ad hoc parameters k1-k3   :    16.0000     1.3333    -4.0000 

 Edisp/kcal,au: -2.586084755980  -0.004121187945 
 E6   /kcal   :  -0.809669264 
 E8   /kcal   :  -1.776415492 
 % E8         :  68.691309815 

-------------------------   ----------------
Dispersion correction           -0.004121188
-------------------------   ----------------


-------------------------   --------------------
FINAL SINGLE POINT ENERGY     -4921.687841088236
-------------------------   --------------------

                                *** OPTIMIZATION RUN DONE ***

                            ***************************************
                            *     ORCA property calculations      *
                            ***************************************

                                    ---------------------
                                    Active property flags
                                    ---------------------
   (+) Dipole Moment


------------------------------------------------------------------------------
                       ORCA ELECTRIC PROPERTIES CALCULATION
------------------------------------------------------------------------------

Dipole Moment Calculation                       ... on
Quadrupole Moment Calculation                   ... off
Polarizability Calculation                      ... off
GBWName                                         ... Cu03N0_D3H.gbw
Electron density file                           ... Cu03N0_D3H.scfp
The origin for moment calculation is the CENTER OF MASS  = ( 0.000000, -0.000000  0.000000)

-------------
DIPOLE MOMENT
-------------
                                X             Y             Z
Electronic contribution:      0.00001      -0.33262       0.00000
Nuclear contribution   :      0.00000      -0.00000       0.00000
                        -----------------------------------------
Total Dipole Moment    :      0.00001      -0.33262       0.00000
                        -----------------------------------------
Magnitude (a.u.)       :      0.33262
Magnitude (Debye)      :      0.84546



--------------------
Rotational spectrum 
--------------------
 
Rotational constants in cm-1:     0.103617     0.088326     0.047681 
Rotational constants in MHz :  3106.345507  2647.957499  1429.446950 

 Dipole components along the rotational axes: 
x,y,z [a.u.] :     0.332623    -0.000012     0.000000 
x,y,z [Debye]:     0.845461    -0.000031     0.000000 

 

----------------------------------------------------------------------------
                           ORCA NUMERICAL FREQUENCIES
                              (24-process run)
----------------------------------------------------------------------------

Number of atoms                ... 3
Central differences            ... used
Number of displacements        ... 18
Numerical increment            ... 5.000e-03 bohr
IR-spectrum generation         ... on
Raman-spectrum generation      ... off
Surface Crossing Hessian       ... off

 WARNING: There are more processes than displacements to do
  ====> : Reducing number of processes to   9

The output will be reduced. Please look at the following files:
SCF program output             ... >Cu03N0_D3H.lastscf
Integral program output        ... >Cu03N0_D3H.lastint
Gradient program output        ... >Cu03N0_D3H.lastgrad
Dipole moment program output   ... >Cu03N0_D3H.lastmom
AutoCI program output          ... >Cu03N0_D3H.lastautoci


         <<< Energy and Gradient at the input geometry >>>

        <<< Energy and Gradient at displaced geometries >>>
             <<<Displacing   2/coordinate 2 (+)>>>
             <<<Displacing   1/coordinate 2 (+)>>>
             <<<Displacing   2/coordinate 3 (+)>>>
             <<<Displacing   1/coordinate 1 (+)>>>
             <<<Displacing   3/coordinate 1 (+)>>>
             <<<Displacing   3/coordinate 2 (+)>>>
             <<<Displacing   2/coordinate 1 (+)>>>
             <<<Displacing   3/coordinate 3 (+)>>>
             <<<Displacing   1/coordinate 3 (+)>>>
             <<<Displacing   1/coordinate 3 (-)>>>
             <<<Displacing   2/coordinate 3 (-)>>>
             <<<Displacing   1/coordinate 2 (-)>>>
             <<<Displacing   3/coordinate 3 (-)>>>
             <<<Displacing   1/coordinate 1 (-)>>>
             <<<Displacing   3/coordinate 2 (-)>>>
             <<<Displacing   3/coordinate 1 (-)>>>
             <<<Displacing   2/coordinate 2 (-)>>>
             <<<Displacing   2/coordinate 1 (-)>>>

-----------------------
VIBRATIONAL FREQUENCIES
-----------------------

Scaling factor for frequencies =  1.000000000 (already applied!)

   0:         0.00 cm**-1
   1:         0.00 cm**-1
   2:         0.00 cm**-1
   3:         0.00 cm**-1
   4:         0.00 cm**-1
   5:         0.00 cm**-1
   6:      -104.28 cm**-1 ***imaginary mode***
   7:       189.66 cm**-1
   8:       268.05 cm**-1


------------
NORMAL MODES
------------

These modes are the cartesian displacements weighted by the diagonal matrix
M(i,i)=1/sqrt(m[i]) where m[i] is the mass of the displaced atom
Thus, these vectors are normalized but *not* orthogonal

                  0          1          2          3          4          5    
      0       0.000000   0.000000   0.000000   0.000000   0.000000   0.000000
      1       0.000000   0.000000   0.000000   0.000000   0.000000   0.000000
      2       0.000000   0.000000   0.000000   0.000000   0.000000   0.000000
      3       0.000000   0.000000   0.000000   0.000000   0.000000   0.000000
      4       0.000000   0.000000   0.000000   0.000000   0.000000   0.000000
      5       0.000000   0.000000   0.000000   0.000000   0.000000   0.000000
      6       0.000000   0.000000   0.000000   0.000000   0.000000   0.000000
      7       0.000000   0.000000   0.000000   0.000000   0.000000   0.000000
      8       0.000000   0.000000   0.000000   0.000000   0.000000   0.000000
                   6          7          8    
      0       0.553877  -0.000057   0.000111
      1       0.000024   0.768067   0.277019
      2       0.000000   0.000000   0.000000
      3      -0.277097  -0.239877   0.665110
      4       0.519521  -0.384088  -0.138405
      5       0.000000   0.000000   0.000000
      6      -0.276780   0.239934  -0.665221
      7      -0.519545  -0.383979  -0.138614
      8       0.000000   0.000000   0.000000


-----------
IR SPECTRUM  
-----------

 Mode    freq (cm**-1)   T**2         TX         TY         TZ
-------------------------------------------------------------------
   7:       189.66    0.100365  ( -0.001395  -0.316801  -0.000003)
   8:       268.05    0.382736  (  0.000616  -0.618656   0.000000)

The first frequency considered to be a vibration is 7
The total number of vibrations considered is 2


--------------------------
THERMOCHEMISTRY AT 298.15K
--------------------------

Temperature         ... 298.15 K
Pressure            ... 1.00 atm
Total Mass          ... 190.65 AMU

Throughout the following assumptions are being made:
  (1) The electronic state is orbitally nondegenerate
      but the spin degeneracy is treated
  (2) There are no thermally accessible electronically excited states
  (3) Hindered rotations indicated by low frequency modes are not
      treated as such but are treated as vibrations and this may
      cause some error
  (4) All equations used are the standard statistical mechanics
      equations for an ideal gas
  (5) All vibrations are strictly harmonic

freq.     189.66  E(vib)   ...       0.36 
freq.     268.05  E(vib)   ...       0.29 

------------
INNER ENERGY
------------

The inner energy is: U= E(el) + E(ZPE) + E(vib) + E(rot) + E(trans)
    E(el)   - is the total energy from the electronic structure calculation
              = E(kin-el) + E(nuc-el) + E(el-el) + E(nuc-nuc)
    E(ZPE)  - the the zero temperature vibrational energy from the frequency calculation
    E(vib)  - the the finite temperature correction to E(ZPE) due to population
              of excited vibrational states
    E(rot)  - is the rotational thermal energy
    E(trans)- is the translational thermal energy

Summary of contributions to the inner energy U:
Electronic energy                ...  -4921.68784111 Eh
Zero point energy                ...      0.00104274 Eh       0.65 kcal/mol
Thermal vibrational correction   ...      0.00103880 Eh       0.65 kcal/mol
Thermal rotational correction    ...      0.00141627 Eh       0.89 kcal/mol
Thermal translational correction ...      0.00141627 Eh       0.89 kcal/mol
-----------------------------------------------------------------------
Total thermal energy                  -4921.68292703 Eh


Summary of corrections to the electronic energy:
(perhaps to be used in another calculation)
Total thermal correction                  0.00387134 Eh       2.43 kcal/mol
Non-thermal (ZPE) correction              0.00104274 Eh       0.65 kcal/mol
-----------------------------------------------------------------------
Total correction                          0.00491408 Eh       3.08 kcal/mol


--------
ENTHALPY
--------

The enthalpy is H = U + kB*T
                kB is Boltzmann's constant
Total free energy                 ...  -4921.68292703 Eh 
Thermal Enthalpy correction       ...      0.00094421 Eh       0.59 kcal/mol
-----------------------------------------------------------------------
Total Enthalpy                    ...  -4921.68198282 Eh


Note: Rotational entropy computed according to Herzberg 
Infrared and Raman Spectra, Chapter V,1, Van Nostrand Reinhold, 1945 
Point Group:  Cs, Symmetry Number:   1  
Rotational constants in cm-1:     0.103617     0.088326     0.047681 

Vibrational entropy computed according to the QRRHO of S. Grimme
Chem.Eur.J. 2012 18 9955


-------
ENTROPY
-------

The entropy contributions are T*S = T*(S(el)+S(vib)+S(rot)+S(trans))
     S(el)   - electronic entropy
     S(vib)  - vibrational entropy
     S(rot)  - rotational entropy
     S(trans)- translational entropy
The entropies will be listed as mutliplied by the temperature to get
units of energy

Electronic entropy                ...      0.00065446 Eh      0.41 kcal/mol
Vibrational entropy               ...      0.00182650 Eh      1.15 kcal/mol
Rotational entropy                ...      0.01316337 Eh      8.26 kcal/mol
Translational entropy             ...      0.01978512 Eh     12.42 kcal/mol
-----------------------------------------------------------------------
Final entropy term                ...      0.03542944 Eh     22.23 kcal/mol

In case the symmetry of your molecule has not been determined correctly
or in case you have a reason to use a different symmetry number we print 
out the resulting rotational entropy values for sn=1,12 :
 --------------------------------------------------------
|  sn= 1 | S(rot)=       0.01316337 Eh      8.26 kcal/mol|
|  sn= 2 | S(rot)=       0.01250891 Eh      7.85 kcal/mol|
|  sn= 3 | S(rot)=       0.01212608 Eh      7.61 kcal/mol|
|  sn= 4 | S(rot)=       0.01185446 Eh      7.44 kcal/mol|
|  sn= 5 | S(rot)=       0.01164377 Eh      7.31 kcal/mol|
|  sn= 6 | S(rot)=       0.01147163 Eh      7.20 kcal/mol|
|  sn= 7 | S(rot)=       0.01132608 Eh      7.11 kcal/mol|
|  sn= 8 | S(rot)=       0.01120000 Eh      7.03 kcal/mol|
|  sn= 9 | S(rot)=       0.01108879 Eh      6.96 kcal/mol|
|  sn=10 | S(rot)=       0.01098931 Eh      6.90 kcal/mol|
|  sn=11 | S(rot)=       0.01089932 Eh      6.84 kcal/mol|
|  sn=12 | S(rot)=       0.01081717 Eh      6.79 kcal/mol|
 --------------------------------------------------------


-------------------
GIBBS FREE ENERGY
-------------------

The Gibbs free energy is G = H - T*S

Total enthalpy                    ...  -4921.68198282 Eh 
Total entropy correction          ...     -0.03542944 Eh    -22.23 kcal/mol
-----------------------------------------------------------------------
Final Gibbs free energy         ...  -4921.71741226 Eh

For completeness - the Gibbs free energy minus the electronic energy
G-E(el)                           ...     -0.02957115 Eh    -18.56 kcal/mol


Total Time for Numerical Frequencies  :        60.849 sec

Timings for individual modules:

Sum of individual times         ...       47.063 sec (=   0.784 min)
GTO integral calculation        ...        6.339 sec (=   0.106 min)  13.5 %
SCF iterations                  ...       31.121 sec (=   0.519 min)  66.1 %
SCF Gradient evaluation         ...        9.341 sec (=   0.156 min)  19.8 %
Geometry relaxation             ...        0.261 sec (=   0.004 min)   0.6 %
                             ****ORCA TERMINATED NORMALLY****
TOTAL RUN TIME: 0 days 0 hours 1 minutes 46 seconds 51 msec
