
                                 *****************
                                 * O   R   C   A *
                                 *****************

           --- An Ab Initio, DFT and Semiempirical electronic structure package ---

                  #######################################################
                  #                        -***-                        #
                  #          Department of theory and spectroscopy      #
                  #               Directorship: Frank Neese             #
                  #        Max Planck Institute fuer Kohlenforschung    #
                  #                Kaiser Wilhelm Platz 1               #
                  #                 D-45470 Muelheim/Ruhr               #
                  #                      Germany                        #
                  #                                                     #
                  #                  All rights reserved                #
                  #                        -***-                        #
                  #######################################################


                         Program Version 4.2.0 -  RELEASE  -


 With contributions from (in alphabetic order):
   Daniel Aravena         : Magnetic Suceptibility
   Michael Atanasov       : Ab Initio Ligand Field Theory (pilot matlab implementation)
   Alexander A. Auer      : GIAO ZORA, VPT2
   Ute Becker             : Parallelization
   Giovanni Bistoni       : ED, misc. LED, open-shell LED, HFLED
   Martin Brehm           : Molecular dynamics
   Dmytro Bykov           : SCF Hessian
   Vijay G. Chilkuri      : MRCI spin determinant printing, contributions to CSF-ICE
   Dipayan Datta          : RHF DLPNO-CCSD density
   Achintya Kumar Dutta   : EOM-CC, STEOM-CC
   Dmitry Ganyushin       : Spin-Orbit,Spin-Spin,Magnetic field MRCI
   Miquel Garcia          : C-PCM Hessian, Gaussian charge scheme
   Yang Guo               : DLPNO-NEVPT2, CIM, IAO-localization
   Andreas Hansen         : Spin unrestricted coupled pair/coupled cluster methods
   Benjamin Helmich-Paris : CASSCF linear response (MC-RPA)
   Lee Huntington         : MR-EOM, pCC
   Robert Izsak           : Overlap fitted RIJCOSX, COSX-SCS-MP3, EOM
   Christian Kollmar      : KDIIS, OOCD, Brueckner-CCSD(T), CCSD density
   Simone Kossmann        : Meta GGA functionals, TD-DFT gradient, OOMP2, MP2 Hessian
   Martin Krupicka        : AUTO-CI
   Lucas Lang             : DCDCAS
   Dagmar Lenk            : GEPOL surface, SMD
   Dimitrios Liakos       : Extrapolation schemes; Compound Job, initial MDCI parallelization
   Dimitrios Manganas     : Further ROCIS development; embedding schemes
   Dimitrios Pantazis     : SARC Basis sets
   Taras Petrenko         : DFT Hessian,TD-DFT gradient, ASA, ECA, R-Raman, ABS, FL, XAS/XES, NRVS
   Peter Pinski           : DLPNO-MP2, DLPNO-MP2 Gradient
   Christoph Reimann      : Effective Core Potentials
   Marius Retegan         : Local ZFS, SOC
   Christoph Riplinger    : Optimizer, TS searches, QM/MM, DLPNO-CCSD(T), (RO)-DLPNO pert. Triples
   Tobias Risthaus        : Range-separated hybrids, TD-DFT gradient, RPA, STAB
   Michael Roemelt        : Original ROCIS implementation
   Masaaki Saitow         : Open-shell DLPNO-CCSD energy and density
   Barbara Sandhoefer     : DKH picture change effects
   Avijit Sen             : IP-ROCIS
   Kantharuban Sivalingam : CASSCF convergence, NEVPT2, FIC-MRCI
   Bernardo de Souza      : ESD, SOC TD-DFT
   Georgi Stoychev        : AutoAux, RI-MP2 NMR
   Willem Van den Heuvel  : Paramagnetic NMR
   Boris Wezisla          : Elementary symmetry handling
   Frank Wennmohs         : Technical directorship


 We gratefully acknowledge several colleagues who have allowed us to
 interface, adapt or use parts of their codes:
   Stefan Grimme, W. Hujo, H. Kruse,             : VdW corrections, initial TS optimization,
                  C. Bannwarth                     DFT functionals, gCP, sTDA/sTD-DF
   Ed Valeev, F. Pavosevic, A. Kumar             : LibInt (2-el integral package), F12 methods
   Garnet Chan, S. Sharma, J. Yang, R. Olivares  : DMRG
   Ulf Ekstrom                                   : XCFun DFT Library
   Mihaly Kallay                                 : mrcc  (arbitrary order and MRCC methods)
   Andreas Klamt, Michael Diedenhofen            : otool_cosmo (COSMO solvation model)
   Jiri Pittner, Ondrej Demel                    : Mk-CCSD
   Frank Weinhold                                : gennbo (NPA and NBO analysis)
   Christopher J. Cramer and Donald G. Truhlar   : smd solvation model
   Lars Goerigk                                  : TD-DFT with DH, B97 family of functionals
   V. Asgeirsson, H. Jonsson                     : NEB implementation
   FAccTs GmbH                                   : IRC, NEB, NEB-TS, Multilevel, MM, QM/MM, CI optimization
   S Lehtola, MJT Oliveira, MAL Marques          : LibXC Library


 Your calculation uses the libint2 library for the computation of 2-el integrals
 For citations please refer to: http://libint.valeyev.net

 Your ORCA version has been built with support for libXC version: 4.2.3
 For citations please refer to: https://tddft.org/programs/libxc/

 This ORCA versions uses:
   CBLAS   interface :  Fast vector & matrix operations
   LAPACKE interface :  Fast linear algebra routines
   SCALAPACK package :  Parallel linear algebra routines


Your calculation utilizes the atom-pairwise dispersion correction
with the Becke-Johnson damping scheme (D3BJ)
Cite in your paper:
S.Grimme, S.Ehrlich, L.Goerigk, J Comput Chem, (2011), 32, 1456–1465 
S.Grimme, J.Antony, S.Ehrlich and H.Krieg, J.Chem.Phys., 132, (2010), 154104 
   

----- Orbital basis set information -----
Your calculation utilizes the basis: def2-TZVPPD
   F. Weigend and R. Ahlrichs, Phys. Chem. Chem. Phys. 7, 3297 (2005).
   D. Rappoport and F. Furche, J. Chem. Phys. 133 134105 (2010).

----- AuxJ basis set information -----
Your calculation utilizes the auxiliary basis: def2/J
   F. Weigend, Phys. Chem. Chem. Phys. 8, 1057 (2006).

================================================================================
                                        WARNINGS
                       Please study these warnings very carefully!
================================================================================


WARNING: your system is open-shell and RHF/RKS was chosen
  ===> : WILL SWITCH to UHF/UKS


WARNING: Geometry Optimization
  ===> : Switching off AutoStart
         For restart on a previous wavefunction, please use MOREAD

INFO   : the flag for use of LIBINT has been found!

================================================================================
                                       INPUT FILE
================================================================================
NAME = Cu03N0_LIN.in
|  1> #
|  2> # Cu03N0_LIN TPSS-D3BJ/Def2-TZVPPD
|  3> #
|  4> ! tpss d3bj def2-tzvppd def2/j grid4 nofinalgrid opt xyzfile numfreq
|  5> 
|  6> *xyz 0 2
|  7> Cu       0.000000    0.000000    0.000000 
|  8> Cu       0.000000    0.000000    2.291099 
|  9> Cu       0.000000    0.000000   -2.291099 
| 10> *
| 11> 
| 12> %maxcore 5000
| 13> 
| 14> %pal
| 15> nprocs = 24
| 16> end
| 17> 
| 18> 
| 19>                          ****END OF INPUT****
================================================================================

                       *****************************
                       * Geometry Optimization Run *
                       *****************************

Geometry optimization settings:
Update method            Update   .... BFGS
Choice of coordinates    CoordSys .... Z-matrix Internals
Initial Hessian          InHess   .... Almoef's Model

Convergence Tolerances:
Energy Change            TolE     ....  5.0000e-06 Eh
Max. Gradient            TolMAXG  ....  3.0000e-04 Eh/bohr
RMS Gradient             TolRMSG  ....  1.0000e-04 Eh/bohr
Max. Displacement        TolMAXD  ....  4.0000e-03 bohr
RMS Displacement         TolRMSD  ....  2.0000e-03 bohr
Strict Convergence                ....  False
------------------------------------------------------------------------------
                        ORCA OPTIMIZATION COORDINATE SETUP
------------------------------------------------------------------------------

The optimization will be done in new redundant internal coordinates
Making redundant internal coordinates   ...  (new redundants) done
Evaluating the initial hessian          ...  (Almloef) done
Evaluating the coordinates              ...  done
Calculating the B-matrix                .... done
Calculating the G-matrix                .... done
Diagonalizing the G-matrix              .... done
The first mode is                       ....    0
The number of degrees of freedom        ....    4

    -----------------------------------------------------------------
                    Redundant Internal Coordinates


    -----------------------------------------------------------------
         Definition                    Initial Value    Approx d2E/dq
    -----------------------------------------------------------------
      1. B(Cu  1,Cu  0)                  2.2911         2.335297   
      2. B(Cu  2,Cu  0)                  2.2911         2.335297   
      3. L(Cu  1,Cu  0,Cu  2, 2)       180.0000         1.128240   
      4. L(Cu  1,Cu  0,Cu  2, 1)       180.0000         1.128240   
    -----------------------------------------------------------------

Number of atoms                         .... 3
Number of degrees of freedom            .... 4

         *************************************************************
         *                GEOMETRY OPTIMIZATION CYCLE   1            *
         *************************************************************
---------------------------------
CARTESIAN COORDINATES (ANGSTROEM)
---------------------------------
  Cu     0.000000    0.000000    0.000000
  Cu     0.000000    0.000000    2.291099
  Cu     0.000000    0.000000   -2.291099

----------------------------
CARTESIAN COORDINATES (A.U.)
----------------------------
  NO LB      ZA    FRAG     MASS         X           Y           Z
   0 Cu   29.0000    0    63.550    0.000000    0.000000    0.000000
   1 Cu   29.0000    0    63.550    0.000000    0.000000    4.329550
   2 Cu   29.0000    0    63.550    0.000000    0.000000   -4.329550

--------------------------------
INTERNAL COORDINATES (ANGSTROEM)
--------------------------------
 Cu     0   0   0     0.000000000000     0.00000000     0.00000000
 Cu     1   0   0     2.291099000000     0.00000000     0.00000000
 Cu     1   2   0     2.291099000000   180.00000000     0.00000000

---------------------------
INTERNAL COORDINATES (A.U.)
---------------------------
 Cu     0   0   0     0.000000000000     0.00000000     0.00000000
 Cu     1   0   0     4.329549655701     0.00000000     0.00000000
 Cu     1   2   0     4.329549655701   180.00000000     0.00000000

---------------------
BASIS SET INFORMATION
---------------------
There are 1 groups of distinct atoms

 Group   1 Type Cu  : 17s13p7d2f1g contracted to 6s6p4d2f1g pattern {842111/631111/4111/11/1}

Atom   0Cu   basis set group =>   1
Atom   1Cu   basis set group =>   1
Atom   2Cu   basis set group =>   1
---------------------------------
AUXILIARY/J BASIS SET INFORMATION
---------------------------------
There are 1 groups of distinct atoms

 Group   1 Type Cu  : 19s5p5d3f3g contracted to 8s5p4d3f3g pattern {121111111/11111/2111/111/111}

Atom   0Cu   basis set group =>   1
Atom   1Cu   basis set group =>   1
Atom   2Cu   basis set group =>   1


           ************************************************************
           *        Program running with 24 parallel MPI-processes    *
           *              working on a common directory               *
           ************************************************************
------------------------------------------------------------------------------
                           ORCA GTO INTEGRAL CALCULATION
                           -- RI-GTO INTEGRALS CHOSEN --
------------------------------------------------------------------------------

                         BASIS SET STATISTICS AND STARTUP INFO

Gaussian basis set:
 # of primitive gaussian shells          ...  120
 # of primitive gaussian functions       ...  342
 # of contracted shells                  ...   57
 # of contracted basis functions         ...  201
 Highest angular momentum                ...    4
 Maximum contraction depth               ...    8
Auxiliary gaussian basis set:
 # of primitive gaussian shells          ...  105
 # of primitive gaussian functions       ...  321
 # of contracted shells                  ...   69
 # of contracted aux-basis functions     ...  273
 Highest angular momentum                ...    4
 Maximum contraction depth               ...   12
Ratio of auxiliary to basis functions    ...  1.36
Integral package used                  ... LIBINT
 One Electron integrals                  ... done
 Ordering auxiliary basis shells         ... done
 Integral threshhold             Thresh  ...  2.500e-11
 Primitive cut-off               TCut    ...  2.500e-12
 Pre-screening matrix                    ... done
 Shell pair data                         ... 
 Ordering of the shell pairs             ... done (   0.000 sec) 1434 of 1653 pairs
 Determination of significant pairs      ... done (   0.000 sec)
 Creation of shell pair data             ... done (   0.000 sec)
 Storage of shell pair data              ... done (   0.010 sec)
 Shell pair data done in (   0.011 sec)
 Computing two index integrals           ... done
 Cholesky decomposition of the V-matrix  ... done


Timings:
 Total evaluation time                   ...   0.324 sec (  0.005 min)
 One electron matrix time                ...   0.017 sec (  0.000 min) =  5.1%
 Schwartz matrix evaluation time         ...   0.191 sec (  0.003 min) = 59.2%
 Two index repulsion integral time       ...   0.001 sec (  0.000 min) =  0.4%
 Cholesky decomposition of V             ...   0.070 sec (  0.001 min) = 21.5%
 Three index repulsion integral time     ...   0.000 sec (  0.000 min) =  0.0%



           ************************************************************
           *        Program running with 24 parallel MPI-processes    *
           *              working on a common directory               *
           ************************************************************
-------------------------------------------------------------------------------
                                 ORCA SCF
-------------------------------------------------------------------------------

------------
SCF SETTINGS
------------
Hamiltonian:
 Density Functional     Method          .... DFT(GTOs)
 Exchange Functional    Exchange        .... TPSS
 Correlation Functional Correlation     .... TPSS
 LDA part of GGA corr.  LDAOpt          .... PW91-LDA
 Gradients option       PostSCFGGA      .... off
   Density functional embedding theory  .... OFF
   NL short-range parameter             ....  5.000000
 RI-approximation to the Coulomb term is turned on
   Number of auxiliary basis functions  .... 273


General Settings:
 Integral files         IntName         .... Cu03N0_LIN
 Hartree-Fock type      HFTyp           .... UHF
 Total Charge           Charge          ....    0
 Multiplicity           Mult            ....    2
 Number of Electrons    NEL             ....   87
 Basis Dimension        Dim             ....  201
 Nuclear Repulsion      ENuc            ....    485.6163266846 Eh

Convergence Acceleration:
 DIIS                   CNVDIIS         .... on
   Start iteration      DIISMaxIt       ....    12
   Startup error        DIISStart       ....  0.200000
   # of expansion vecs  DIISMaxEq       ....     5
   Bias factor          DIISBfac        ....   1.050
   Max. coefficient     DIISMaxC        ....  10.000
 Newton-Raphson         CNVNR           .... off
 SOSCF                  CNVSOSCF        .... off
 Level Shifting         CNVShift        .... on
   Level shift para.    LevelShift      ....    0.2500
   Turn off err/grad.   ShiftErr        ....    0.0010
 Zerner damping         CNVZerner       .... off
 Static damping         CNVDamp         .... on
   Fraction old density DampFac         ....    0.7000
   Max. Damping (<1)    DampMax         ....    0.9800
   Min. Damping (>=0)   DampMin         ....    0.0000
   Turn off err/grad.   DampErr         ....    0.1000
 Fernandez-Rico         CNVRico         .... off

SCF Procedure:
 Maximum # iterations   MaxIter         ....   125
 SCF integral mode      SCFMode         .... Direct
   Integral package                     .... LIBINT
 Reset frequency        DirectResetFreq ....    20
 Integral Threshold     Thresh          ....  2.500e-11 Eh
 Primitive CutOff       TCut            ....  2.500e-12 Eh

Convergence Tolerance:
 Convergence Check Mode ConvCheckMode   .... Total+1el-Energy
 Convergence forced     ConvForced      .... 0
 Energy Change          TolE            ....  1.000e-08 Eh
 1-El. energy change                    ....  1.000e-05 Eh
 DIIS Error             TolErr          ....  5.000e-07


Diagonalization of the overlap matrix:
Smallest eigenvalue                        ... 3.321e-04
Time for diagonalization                   ...    0.008 sec
Threshold for overlap eigenvalues          ... 1.000e-08
Number of eigenvalues below threshold      ... 0
Time for construction of square roots      ...    0.005 sec
Total time needed                          ...    0.013 sec

-------------------
DFT GRID GENERATION
-------------------

General Integration Accuracy     IntAcc      ...  4.670
Radial Grid Type                 RadialGrid  ... Gauss-Chebyshev
Angular Grid (max. acc.)         AngularGrid ... Lebedev-302
Angular grid pruning method      GridPruning ... 3 (G Style)
Weight generation scheme         WeightScheme... Becke
Basis function cutoff            BFCut       ...    1.0000e-11
Integration weight cutoff        WCut        ...    1.0000e-14
Grids for H and He will be reduced by one unit

# of grid points (after initial pruning)     ...  28668 (   0.0 sec)
# of grid points (after weights+screening)   ...  28508 (   0.0 sec)
nearest neighbour list constructed           ...    0.0 sec
Grid point re-assignment to atoms done       ...    0.0 sec
Grid point division into batches done        ...    0.2 sec
Reduced shell lists constructed in    0.2 sec

Total number of grid points                  ...    28508
Total number of batches                      ...      447
Average number of points per batch           ...       63
Average number of grid points per atom       ...     9503
Average number of shells per batch           ...    19.10 (33.51%)
Average number of basis functions per batch  ...    56.10 (27.91%)
Average number of large shells per batch     ...    16.15 (84.55%)
Average number of large basis fcns per batch ...    46.85 (83.51%)
Maximum spatial batch extension              ...  26.18, 26.18,  4.32 au
Average spatial batch extension              ...   0.42,  0.42,  0.18 au

Time for grid setup =    0.266 sec

------------------------------
INITIAL GUESS: MODEL POTENTIAL
------------------------------
Loading Hartree-Fock densities                     ... done
Calculating cut-offs                               ... done
Setting up the integral package                    ... done
Initializing the effective Hamiltonian             ... done
Starting the Coulomb interaction                   ... done (   0.0 sec)
Reading the grid                                   ... done
Mapping shells                                     ... done
Starting the XC term evaluation                    ... done (   0.0 sec)
  promolecular density results
     # of electrons  =     87.000074313
     EX              =   -196.438204416
     EC              =     -4.046522289
     EX+EC           =   -200.484726705
Transforming the Hamiltonian                       ... done (   0.0 sec)
Diagonalizing the Hamiltonian                      ... done (   0.0 sec)
Back transforming the eigenvectors                 ... done (   0.0 sec)
Now organizing SCF variables                       ... done
                      ------------------
                      INITIAL GUESS DONE (   0.4 sec)
                      ------------------
--------------
SCF ITERATIONS
--------------
ITER       Energy         Delta-E        Max-DP      RMS-DP      [F,P]     Damp
               ***  Starting incremental Fock matrix formation  ***
  0  -4921.5237577825   0.000000000000 0.08301133  0.00113871  0.2141355 0.7000
  1  -4921.5817748276  -0.058017045119 0.05170807  0.00056426  0.0914347 0.7000
                               ***Turning on DIIS***
  2  -4921.6061549791  -0.024380151491 0.09577363  0.00092545  0.0585751 0.0000
  3  -4921.6498866510  -0.043731671892 0.00718265  0.00011209  0.1388204 0.7000
  4  -4921.6577504644  -0.007863813342 0.00864115  0.00012194  0.1030318 0.7000
  5  -4921.6630600309  -0.005309566513 0.02572863  0.00036088  0.0745665 0.0000
  6  -4921.6713949935  -0.008334962669 0.00502406  0.00007338  0.0098049 0.0000
  7  -4921.6715246743  -0.000129680767 0.00297154  0.00003584  0.0022927 0.0000
  8  -4921.6715451583  -0.000020484006 0.00190371  0.00001867  0.0023078 0.0000
  9  -4921.6715605818  -0.000015423498 0.00286660  0.00002812  0.0004791 0.0000
 10  -4921.6715684464  -0.000007864549 0.00082911  0.00000645  0.0001710 0.0000
 11  -4921.6715693502  -0.000000903804 0.00048843  0.00000390  0.0000485 0.0000
 12  -4921.6715694485  -0.000000098355 0.00006972  0.00000088  0.0001772 0.0000
 13  -4921.6715695374  -0.000000088851 0.00014405  0.00000136  0.0000447 0.0000
 14  -4921.6715695618  -0.000000024398 0.00004899  0.00000036  0.0000145 0.0000
 15  -4921.6715695317   0.000000030079 0.00001257  0.00000012  0.0000073 0.0000
 16  -4921.6715695727  -0.000000041039 0.00001060  0.00000012  0.0000043 0.0000
 17  -4921.6715695428   0.000000029911 0.00000650  0.00000007  0.0000078 0.0000
                            ***DIIS convergence achieved***

               *****************************************************
               *                     SUCCESS                       *
               *           SCF CONVERGED AFTER  18 CYCLES          *
               *****************************************************


----------------
TOTAL SCF ENERGY
----------------

Total Energy       :        -4921.67156955 Eh         -133925.49205 eV

Components:
Nuclear Repulsion  :          485.61632668 Eh           13214.29205 eV
Electronic Energy  :        -5407.28789624 Eh         -147139.78410 eV
One Electron Energy:        -7831.34321672 Eh         -213101.68281 eV
Two Electron Energy:         2424.05532049 Eh           65961.89871 eV

Virial components:
Potential Energy   :        -9835.17454493 Eh         -267628.70535 eV
Kinetic Energy     :         4913.50297538 Eh          133703.21330 eV
Virial Ratio       :            2.00166248


DFT components:
N(Alpha)           :       44.000001614089 electrons
N(Beta)            :       43.000000624948 electrons
N(Total)           :       87.000002239037 electrons
E(X)               :     -197.488055751664 Eh       
E(C)               :       -4.078517035473 Eh       
E(XC)              :     -201.566572787137 Eh       
DFET-embed. en.    :        0.000000000000 Eh       

---------------
SCF CONVERGENCE
---------------

  Last Energy change         ...   -1.0363e-08  Tolerance :   1.0000e-08
  Last MAX-Density change    ...    6.3072e-06  Tolerance :   1.0000e-07
  Last RMS-Density change    ...    7.4772e-08  Tolerance :   5.0000e-09
  Last DIIS Error            ...    2.7844e-07  Tolerance :   5.0000e-07

             **** THE GBW FILE WAS UPDATED (Cu03N0_LIN.gbw) ****
             **** DENSITY FILE WAS UPDATED (Cu03N0_LIN.scfp) ****
             **** ENERGY FILE WAS UPDATED (Cu03N0_LIN.en.tmp) ****
----------------------
UHF SPIN CONTAMINATION
----------------------

Warning: in a DFT calculation there is little theoretical justification to 
         calculate <S**2> as in Hartree-Fock theory. We will do it anyways
         but you should keep in mind that the values have only limited relevance

Expectation value of <S**2>     :     0.758070
Ideal value S*(S+1) for S=0.5   :     0.750000
Deviation                       :     0.008070

             **** THE GBW FILE WAS UPDATED (Cu03N0_LIN.gbw) ****
             **** DENSITY FILE WAS UPDATED (Cu03N0_LIN.scfp) ****
----------------
ORBITAL ENERGIES
----------------
                 SPIN UP ORBITALS
  NO   OCC          E(Eh)            E(eV) 
   0   1.0000    -322.092297     -8764.5770 
   1   1.0000    -322.092294     -8764.5769 
   2   1.0000    -322.078134     -8764.1916 
   3   1.0000     -38.381621     -1044.4170 
   4   1.0000     -38.381598     -1044.4164 
   5   1.0000     -38.371718     -1044.1475 
   6   1.0000     -33.600993      -914.3295 
   7   1.0000     -33.600989      -914.3294 
   8   1.0000     -33.600541      -914.3172 
   9   1.0000     -33.600541      -914.3172 
  10   1.0000     -33.600538      -914.3171 
  11   1.0000     -33.600538      -914.3171 
  12   1.0000     -33.590845      -914.0534 
  13   1.0000     -33.590378      -914.0407 
  14   1.0000     -33.590378      -914.0407 
  15   1.0000      -4.140083      -112.6574 
  16   1.0000      -4.140068      -112.6570 
  17   1.0000      -4.128329      -112.3376 
  18   1.0000      -2.657085       -72.3030 
  19   1.0000      -2.656569       -72.2889 
  20   1.0000      -2.649647       -72.1006 
  21   1.0000      -2.649647       -72.1006 
  22   1.0000      -2.649642       -72.1004 
  23   1.0000      -2.649642       -72.1004 
  24   1.0000      -2.643183       -71.9247 
  25   1.0000      -2.637623       -71.7734 
  26   1.0000      -2.637623       -71.7734 
  27   1.0000      -0.259719        -7.0673 
  28   1.0000      -0.221812        -6.0358 
  29   1.0000      -0.221812        -6.0358 
  30   1.0000      -0.211866        -5.7652 
  31   1.0000      -0.207489        -5.6461 
  32   1.0000      -0.207489        -5.6461 
  33   1.0000      -0.203326        -5.5328 
  34   1.0000      -0.202011        -5.4970 
  35   1.0000      -0.202004        -5.4968 
  36   1.0000      -0.200448        -5.4545 
  37   1.0000      -0.200441        -5.4543 
  38   1.0000      -0.182747        -4.9728 
  39   1.0000      -0.182735        -4.9725 
  40   1.0000      -0.180189        -4.9032 
  41   1.0000      -0.176614        -4.8059 
  42   1.0000      -0.176614        -4.8059 
  43   1.0000      -0.174057        -4.7363 
  44   0.0000      -0.088562        -2.4099 
  45   0.0000      -0.054311        -1.4779 
  46   0.0000      -0.054311        -1.4779 
  47   0.0000      -0.026659        -0.7254 
  48   0.0000      -0.013922        -0.3788 
  49   0.0000      -0.013922        -0.3788 
  50   0.0000       0.043566         1.1855 
  51   0.0000       0.047958         1.3050 
  52   0.0000       0.053384         1.4527 
  53   0.0000       0.053384         1.4527 
  54   0.0000       0.068435         1.8622 
  55   0.0000       0.097957         2.6656 
  56   0.0000       0.097957         2.6656 
  57   0.0000       0.112383         3.0581 
  58   0.0000       0.116198         3.1619 
  59   0.0000       0.116198         3.1619 
  60   0.0000       0.144652         3.9362 
  61   0.0000       0.144653         3.9362 
  62   0.0000       0.167428         4.5559 
  63   0.0000       0.175899         4.7865 
  64   0.0000       0.175899         4.7865 
  65   0.0000       0.178681         4.8622 
  66   0.0000       0.178682         4.8622 
  67   0.0000       0.190921         5.1952 
  68   0.0000       0.211456         5.7540 
  69   0.0000       0.211456         5.7540 
  70   0.0000       0.220359         5.9963 
  71   0.0000       0.268936         7.3181 
  72   0.0000       0.268937         7.3181 
  73   0.0000       0.273178         7.4335 
  74   0.0000       0.319171         8.6851 
  75   0.0000       0.319171         8.6851 
  76   0.0000       0.343305         9.3418 
  77   0.0000       0.431828        11.7506 
  78   0.0000       0.431828        11.7506 
  79   0.0000       0.460039        12.5183 
  80   0.0000       0.523282        14.2392 
  81   0.0000       0.581519        15.8239 
  82   0.0000       0.626966        17.0606 
  83   0.0000       0.626966        17.0606 
  84   0.0000       0.649548        17.6751 
  85   0.0000       0.649548        17.6751 
  86   0.0000       0.714272        19.4363 
  87   0.0000       0.714272        19.4363 
  88   0.0000       0.733116        19.9491 
  89   0.0000       0.816303        22.2127 
  90   0.0000       0.816304        22.2128 
  91   0.0000       0.855278        23.2733 
  92   0.0000       0.855280        23.2733 
  93   0.0000       0.857676        23.3385 
  94   0.0000       0.859998        23.4017 
  95   0.0000       0.859998        23.4017 
  96   0.0000       0.910725        24.7821 
  97   0.0000       0.914270        24.8786 
  98   0.0000       0.914270        24.8786 
  99   0.0000       0.931494        25.3472 
 100   0.0000       0.931498        25.3474 
 101   0.0000       1.122573        30.5468 
 102   0.0000       1.122573        30.5468 
 103   0.0000       1.154397        31.4127 
 104   0.0000       1.439761        39.1779 
 105   0.0000       2.876461        78.2725 
 106   0.0000       2.893259        78.7296 
 107   0.0000       2.893259        78.7296 
 108   0.0000       2.989366        81.3448 
 109   0.0000       2.992564        81.4318 
 110   0.0000       2.992564        81.4318 
 111   0.0000       3.018775        82.1451 
 112   0.0000       3.018775        82.1451 
 113   0.0000       3.061606        83.3105 
 114   0.0000       3.138896        85.4137 
 115   0.0000       3.274801        89.1119 
 116   0.0000       3.309472        90.0553 
 117   0.0000       3.347803        91.0984 
 118   0.0000       3.347803        91.0984 
 119   0.0000       3.351955        91.2113 
 120   0.0000       3.351955        91.2113 
 121   0.0000       3.366203        91.5990 
 122   0.0000       3.366215        91.5994 
 123   0.0000       3.367023        91.6213 
 124   0.0000       3.367035        91.6217 
 125   0.0000       3.369173        91.6798 
 126   0.0000       3.369173        91.6798 
 127   0.0000       3.369174        91.6799 
 128   0.0000       3.369174        91.6799 
 129   0.0000       3.388866        92.2157 
 130   0.0000       3.388886        92.2163 
 131   0.0000       3.393074        92.3302 
 132   0.0000       3.393074        92.3302 
 133   0.0000       3.406449        92.6942 
 134   0.0000       3.406449        92.6942 
 135   0.0000       3.411991        92.8450 
 136   0.0000       3.489912        94.9653 
 137   0.0000       3.564180        96.9863 
 138   0.0000       3.564246        96.9881 
 139   0.0000       3.588168        97.6390 
 140   0.0000       3.588227        97.6406 
 141   0.0000       3.631782        98.8258 
 142   0.0000       3.631782        98.8258 
 143   0.0000       3.639280        99.0298 
 144   0.0000       3.639347        99.0317 
 145   0.0000       3.697290       100.6084 
 146   0.0000       3.699789       100.6764 
 147   0.0000       3.699789       100.6764 
 148   0.0000       3.796623       103.3114 
 149   0.0000       3.796623       103.3114 
 150   0.0000       3.925680       106.8232 
 151   0.0000       4.028195       109.6128 
 152   0.0000       4.373187       119.0005 
 153   0.0000      12.902520       351.0954 
 154   0.0000      12.902520       351.0954 
 155   0.0000      12.903281       351.1161 
 156   0.0000      12.903292       351.1164 
 157   0.0000      12.903292       351.1164 
 158   0.0000      12.903545       351.1233 
 159   0.0000      12.903824       351.1309 
 160   0.0000      12.903883       351.1325 
 161   0.0000      12.904830       351.1583 
 162   0.0000      12.904891       351.1599 
 163   0.0000      12.906870       351.2138 
 164   0.0000      12.906870       351.2138 
 165   0.0000      12.906877       351.2140 
 166   0.0000      12.906877       351.2140 
 167   0.0000      12.908844       351.2675 
 168   0.0000      12.908844       351.2675 
 169   0.0000      12.909068       351.2736 
 170   0.0000      12.909068       351.2736 
 171   0.0000      12.916770       351.4832 
 172   0.0000      12.916770       351.4832 
 173   0.0000      12.917049       351.4908 
 174   0.0000      12.918655       351.5345 
 175   0.0000      12.919459       351.5563 
 176   0.0000      12.920554       351.5861 
 177   0.0000      12.920554       351.5861 
 178   0.0000      12.923374       351.6629 
 179   0.0000      12.923678       351.6712 
 180   0.0000      12.988415       353.4327 
 181   0.0000      12.988415       353.4327 
 182   0.0000      12.991896       353.5275 
 183   0.0000      12.992125       353.5337 
 184   0.0000      12.993042       353.5587 
 185   0.0000      12.993268       353.5648 
 186   0.0000      12.994404       353.5957 
 187   0.0000      12.995720       353.6315 
 188   0.0000      12.995720       353.6315 
 189   0.0000      12.995720       353.6315 
 190   0.0000      12.995720       353.6315 
 191   0.0000      13.004115       353.8600 
 192   0.0000      13.004407       353.8679 
 193   0.0000      13.005460       353.8966 
 194   0.0000      13.005460       353.8966 
 195   0.0000      13.006041       353.9124 
 196   0.0000      13.006041       353.9124 
 197   0.0000      13.020872       354.3159 
 198   0.0000      13.020872       354.3159 
 199   0.0000      13.085482       356.0741 
 200   0.0000      13.123664       357.1131 

                 SPIN DOWN ORBITALS
  NO   OCC          E(Eh)            E(eV) 
   0   1.0000    -322.091770     -8764.5627 
   1   1.0000    -322.091767     -8764.5626 
   2   1.0000    -322.078084     -8764.1902 
   3   1.0000     -38.382045     -1044.4285 
   4   1.0000     -38.382022     -1044.4279 
   5   1.0000     -38.372064     -1044.1570 
   6   1.0000     -33.601433      -914.3415 
   7   1.0000     -33.601429      -914.3414 
   8   1.0000     -33.600701      -914.3216 
   9   1.0000     -33.600701      -914.3216 
  10   1.0000     -33.600698      -914.3215 
  11   1.0000     -33.600698      -914.3215 
  12   1.0000     -33.591064      -914.0593 
  13   1.0000     -33.590604      -914.0468 
  14   1.0000     -33.590604      -914.0468 
  15   1.0000      -4.140562      -112.6704 
  16   1.0000      -4.140550      -112.6701 
  17   1.0000      -4.129014      -112.3562 
  18   1.0000      -2.655495       -72.2597 
  19   1.0000      -2.654878       -72.2429 
  20   1.0000      -2.650801       -72.1320 
  21   1.0000      -2.650801       -72.1320 
  22   1.0000      -2.650797       -72.1319 
  23   1.0000      -2.650797       -72.1319 
  24   1.0000      -2.643772       -71.9407 
  25   1.0000      -2.638290       -71.7915 
  26   1.0000      -2.638290       -71.7915 
  27   1.0000      -0.253143        -6.8884 
  28   1.0000      -0.219309        -5.9677 
  29   1.0000      -0.219309        -5.9677 
  30   1.0000      -0.207885        -5.6568 
  31   1.0000      -0.204274        -5.5586 
  32   1.0000      -0.204274        -5.5586 
  33   1.0000      -0.198337        -5.3970 
  34   1.0000      -0.198329        -5.3968 
  35   1.0000      -0.196488        -5.3467 
  36   1.0000      -0.196481        -5.3465 
  37   1.0000      -0.190625        -5.1872 
  38   1.0000      -0.183148        -4.9837 
  39   1.0000      -0.183136        -4.9834 
  40   1.0000      -0.175926        -4.7872 
  41   1.0000      -0.175926        -4.7872 
  42   1.0000      -0.173097        -4.7102 
  43   0.0000      -0.156247        -4.2517 
  44   0.0000      -0.074001        -2.0137 
  45   0.0000      -0.042584        -1.1588 
  46   0.0000      -0.042584        -1.1588 
  47   0.0000      -0.013365        -0.3637 
  48   0.0000       0.002592         0.0705 
  49   0.0000       0.002592         0.0705 
  50   0.0000       0.055151         1.5007 
  51   0.0000       0.059485         1.6187 
  52   0.0000       0.060534         1.6472 
  53   0.0000       0.060534         1.6472 
  54   0.0000       0.073333         1.9955 
  55   0.0000       0.108401         2.9497 
  56   0.0000       0.108401         2.9497 
  57   0.0000       0.120362         3.2752 
  58   0.0000       0.133161         3.6235 
  59   0.0000       0.133161         3.6235 
  60   0.0000       0.151635         4.1262 
  61   0.0000       0.151635         4.1262 
  62   0.0000       0.176332         4.7982 
  63   0.0000       0.185646         5.0517 
  64   0.0000       0.185646         5.0517 
  65   0.0000       0.190097         5.1728 
  66   0.0000       0.190097         5.1728 
  67   0.0000       0.201110         5.4725 
  68   0.0000       0.220842         6.0094 
  69   0.0000       0.220842         6.0094 
  70   0.0000       0.230662         6.2766 
  71   0.0000       0.274196         7.4613 
  72   0.0000       0.274197         7.4613 
  73   0.0000       0.282273         7.6811 
  74   0.0000       0.328813         8.9475 
  75   0.0000       0.328813         8.9475 
  76   0.0000       0.350383         9.5344 
  77   0.0000       0.441803        12.0221 
  78   0.0000       0.441803        12.0221 
  79   0.0000       0.465589        12.6693 
  80   0.0000       0.533126        14.5071 
  81   0.0000       0.590552        16.0697 
  82   0.0000       0.635050        17.2806 
  83   0.0000       0.635050        17.2806 
  84   0.0000       0.661466        17.9994 
  85   0.0000       0.661466        17.9994 
  86   0.0000       0.720051        19.5936 
  87   0.0000       0.720051        19.5936 
  88   0.0000       0.740504        20.1501 
  89   0.0000       0.829418        22.5696 
  90   0.0000       0.829420        22.5697 
  91   0.0000       0.865772        23.5589 
  92   0.0000       0.871001        23.7012 
  93   0.0000       0.871001        23.7012 
  94   0.0000       0.877889        23.8886 
  95   0.0000       0.877893        23.8887 
  96   0.0000       0.924190        25.1485 
  97   0.0000       0.930108        25.3095 
  98   0.0000       0.930108        25.3095 
  99   0.0000       0.939881        25.5755 
 100   0.0000       0.939887        25.5756 
 101   0.0000       1.132801        30.8251 
 102   0.0000       1.132801        30.8251 
 103   0.0000       1.167436        31.7676 
 104   0.0000       1.448272        39.4095 
 105   0.0000       2.880669        78.3870 
 106   0.0000       2.898028        78.8593 
 107   0.0000       2.898028        78.8593 
 108   0.0000       2.992067        81.4183 
 109   0.0000       2.999194        81.6122 
 110   0.0000       2.999194        81.6122 
 111   0.0000       3.020647        82.1960 
 112   0.0000       3.020647        82.1960 
 113   0.0000       3.065885        83.4270 
 114   0.0000       3.143089        85.5278 
 115   0.0000       3.279815        89.2483 
 116   0.0000       3.312094        90.1267 
 117   0.0000       3.348935        91.1292 
 118   0.0000       3.348935        91.1292 
 119   0.0000       3.354528        91.2813 
 120   0.0000       3.354528        91.2813 
 121   0.0000       3.369502        91.6888 
 122   0.0000       3.369507        91.6890 
 123   0.0000       3.370489        91.7157 
 124   0.0000       3.370494        91.7158 
 125   0.0000       3.375153        91.8426 
 126   0.0000       3.375153        91.8426 
 127   0.0000       3.375155        91.8426 
 128   0.0000       3.375155        91.8426 
 129   0.0000       3.388668        92.2103 
 130   0.0000       3.388686        92.2108 
 131   0.0000       3.392591        92.3171 
 132   0.0000       3.392591        92.3171 
 133   0.0000       3.408763        92.7572 
 134   0.0000       3.408763        92.7572 
 135   0.0000       3.413885        92.8965 
 136   0.0000       3.492336        95.0313 
 137   0.0000       3.567401        97.0739 
 138   0.0000       3.567461        97.0756 
 139   0.0000       3.593258        97.7775 
 140   0.0000       3.593311        97.7790 
 141   0.0000       3.635117        98.9166 
 142   0.0000       3.635117        98.9166 
 143   0.0000       3.640663        99.0675 
 144   0.0000       3.640727        99.0692 
 145   0.0000       3.700406       100.6932 
 146   0.0000       3.702949       100.7624 
 147   0.0000       3.702949       100.7624 
 148   0.0000       3.797610       103.3382 
 149   0.0000       3.797610       103.3382 
 150   0.0000       3.929675       106.9319 
 151   0.0000       4.031665       109.7072 
 152   0.0000       4.376141       119.0808 
 153   0.0000      12.902310       351.0897 
 154   0.0000      12.902310       351.0897 
 155   0.0000      12.903079       351.1106 
 156   0.0000      12.903079       351.1106 
 157   0.0000      12.903086       351.1108 
 158   0.0000      12.903145       351.1124 
 159   0.0000      12.903304       351.1168 
 160   0.0000      12.903570       351.1240 
 161   0.0000      12.904095       351.1383 
 162   0.0000      12.904157       351.1400 
 163   0.0000      12.905674       351.1812 
 164   0.0000      12.905674       351.1812 
 165   0.0000      12.905685       351.1815 
 166   0.0000      12.905685       351.1815 
 167   0.0000      12.907860       351.2407 
 168   0.0000      12.907860       351.2407 
 169   0.0000      12.908083       351.2468 
 170   0.0000      12.908083       351.2468 
 171   0.0000      12.916138       351.4660 
 172   0.0000      12.916138       351.4660 
 173   0.0000      12.916233       351.4686 
 174   0.0000      12.917841       351.5123 
 175   0.0000      12.918965       351.5429 
 176   0.0000      12.919689       351.5626 
 177   0.0000      12.919689       351.5626 
 178   0.0000      12.922955       351.6515 
 179   0.0000      12.923260       351.6598 
 180   0.0000      12.989279       353.4563 
 181   0.0000      12.989279       353.4563 
 182   0.0000      12.990941       353.5015 
 183   0.0000      12.991169       353.5077 
 184   0.0000      12.992087       353.5327 
 185   0.0000      12.992312       353.5388 
 186   0.0000      12.993826       353.5800 
 187   0.0000      12.993826       353.5800 
 188   0.0000      12.993826       353.5800 
 189   0.0000      12.993826       353.5800 
 190   0.0000      12.995727       353.6317 
 191   0.0000      13.002908       353.8271 
 192   0.0000      13.003200       353.8351 
 193   0.0000      13.005405       353.8951 
 194   0.0000      13.005405       353.8951 
 195   0.0000      13.006505       353.9250 
 196   0.0000      13.006505       353.9250 
 197   0.0000      13.020458       354.3047 
 198   0.0000      13.020458       354.3047 
 199   0.0000      13.087268       356.1227 
 200   0.0000      13.123990       357.1219 

                    ********************************
                    * MULLIKEN POPULATION ANALYSIS *
                    ********************************

--------------------------------------------
MULLIKEN ATOMIC CHARGES AND SPIN POPULATIONS
--------------------------------------------
   0 Cu:   -0.336687   -0.126410
   1 Cu:    0.168340    0.563209
   2 Cu:    0.168348    0.563201
Sum of atomic charges         :   -0.0000000
Sum of atomic spin populations:    1.0000000

-----------------------------------------------------
MULLIKEN REDUCED ORBITAL CHARGES AND SPIN POPULATIONS
-----------------------------------------------------
CHARGE
  0 Cus       :     7.441121  s :     7.441121
      pz      :     3.943705  p :    11.992069
      px      :     4.024182
      py      :     4.024182
      dz2     :     1.970143  d :     9.903199
      dxz     :     1.966828
      dyz     :     1.966828
      dx2y2   :     1.999699
      dxy     :     1.999699
      f0      :     0.000120  f :     0.000297
      f+1     :     0.000079
      f-1     :     0.000079
      f+2     :     0.000009
      f-2     :     0.000009
      f+3     :     0.000000
      f-3     :     0.000000
      g0      :     0.000000  g :     0.000001
      g+1     :     0.000000
      g-1     :     0.000000
      g+2     :     0.000000
      g-2     :     0.000000
      g+3     :     0.000000
      g-3     :     0.000000
      g+4     :     0.000000
      g-4     :     0.000000
  1 Cus       :     6.919777  s :     6.919777
      pz      :     3.965617  p :    11.998734
      px      :     4.016559
      py      :     4.016559
      dz2     :     1.937011  d :     9.912983
      dxz     :     1.987851
      dyz     :     1.987851
      dx2y2   :     2.000135
      dxy     :     2.000135
      f0      :     0.000054  f :     0.000165
      f+1     :     0.000045
      f-1     :     0.000045
      f+2     :     0.000011
      f-2     :     0.000011
      f+3     :     0.000000
      f-3     :     0.000000
      g0      :     0.000000  g :     0.000001
      g+1     :     0.000000
      g-1     :     0.000000
      g+2     :     0.000000
      g-2     :     0.000000
      g+3     :     0.000000
      g-3     :     0.000000
      g+4     :     0.000000
      g-4     :     0.000000
  2 Cus       :     6.919771  s :     6.919771
      pz      :     3.965615  p :    11.998732
      px      :     4.016559
      py      :     4.016559
      dz2     :     1.937010  d :     9.912983
      dxz     :     1.987851
      dyz     :     1.987851
      dx2y2   :     2.000135
      dxy     :     2.000135
      f0      :     0.000054  f :     0.000165
      f+1     :     0.000045
      f-1     :     0.000045
      f+2     :     0.000011
      f-2     :     0.000011
      f+3     :     0.000000
      f-3     :     0.000000
      g0      :     0.000000  g :     0.000001
      g+1     :     0.000000
      g-1     :     0.000000
      g+2     :     0.000000
      g-2     :     0.000000
      g+3     :     0.000000
      g-3     :     0.000000
      g+4     :     0.000000
      g-4     :     0.000000

SPIN
  0 Cus       :    -0.095250  s :    -0.095250
      pz      :    -0.018051  p :    -0.018970
      px      :    -0.000459
      py      :    -0.000459
      dz2     :     0.000259  d :    -0.012196
      dxz     :    -0.006003
      dyz     :    -0.006003
      dx2y2   :    -0.000225
      dxy     :    -0.000225
      f0      :     0.000001  f :     0.000005
      f+1     :     0.000002
      f-1     :     0.000002
      f+2     :     0.000000
      f-2     :     0.000000
      f+3     :    -0.000000
      f-3     :    -0.000000
      g0      :     0.000000  g :     0.000000
      g+1     :     0.000000
      g-1     :     0.000000
      g+2     :    -0.000000
      g-2     :    -0.000000
      g+3     :    -0.000000
      g-3     :    -0.000000
      g+4     :    -0.000000
      g-4     :    -0.000000
  1 Cus       :     0.542164  s :     0.542164
      pz      :     0.001566  p :     0.007506
      px      :     0.002970
      py      :     0.002970
      dz2     :     0.012794  d :     0.013539
      dxz     :     0.000261
      dyz     :     0.000261
      dx2y2   :     0.000112
      dxy     :     0.000112
      f0      :    -0.000000  f :     0.000000
      f+1     :    -0.000000
      f-1     :    -0.000000
      f+2     :     0.000000
      f-2     :     0.000000
      f+3     :    -0.000000
      f-3     :    -0.000000
      g0      :     0.000000  g :     0.000000
      g+1     :     0.000000
      g-1     :     0.000000
      g+2     :    -0.000000
      g-2     :    -0.000000
      g+3     :    -0.000000
      g-3     :    -0.000000
      g+4     :     0.000000
      g-4     :    -0.000000
  2 Cus       :     0.542158  s :     0.542158
      pz      :     0.001564  p :     0.007504
      px      :     0.002970
      py      :     0.002970
      dz2     :     0.012794  d :     0.013539
      dxz     :     0.000261
      dyz     :     0.000261
      dx2y2   :     0.000112
      dxy     :     0.000112
      f0      :    -0.000000  f :     0.000000
      f+1     :    -0.000000
      f-1     :    -0.000000
      f+2     :     0.000000
      f-2     :     0.000000
      f+3     :    -0.000000
      f-3     :    -0.000000
      g0      :     0.000000  g :     0.000000
      g+1     :     0.000000
      g-1     :     0.000000
      g+2     :    -0.000000
      g-2     :    -0.000000
      g+3     :    -0.000000
      g-3     :    -0.000000
      g+4     :     0.000000
      g-4     :     0.000000


                     *******************************
                     * LOEWDIN POPULATION ANALYSIS *
                     *******************************

-------------------------------------------
LOEWDIN ATOMIC CHARGES AND SPIN POPULATIONS
-------------------------------------------
   0 Cu:   -0.253852    0.349901
   1 Cu:    0.126926    0.325049
   2 Cu:    0.126926    0.325049

----------------------------------------------------
LOEWDIN REDUCED ORBITAL CHARGES AND SPIN POPULATIONS
----------------------------------------------------
CHARGE
  0 Cus       :     6.735457  s :     6.735457
      pz      :     4.459207  p :    12.507374
      px      :     4.024083
      py      :     4.024083
      dz2     :     2.077996  d :    10.010227
      dxz     :     1.966397
      dyz     :     1.966397
      dx2y2   :     1.999718
      dxy     :     1.999718
      f0      :     0.000433  f :     0.000792
      f+1     :     0.000166
      f-1     :     0.000166
      f+2     :     0.000013
      f-2     :     0.000013
      f+3     :     0.000000
      f-3     :     0.000000
      g0      :     0.000001  g :     0.000002
      g+1     :     0.000001
      g-1     :     0.000001
      g+2     :     0.000000
      g-2     :     0.000000
      g+3     :     0.000000
      g-3     :     0.000000
      g+4     :     0.000000
      g-4     :     0.000000
  1 Cus       :     6.740059  s :     6.740059
      pz      :     4.129561  p :    12.166139
      px      :     4.018289
      py      :     4.018289
      dz2     :     1.993682  d :     9.966508
      dxz     :     1.986291
      dyz     :     1.986291
      dx2y2   :     2.000121
      dxy     :     2.000121
      f0      :     0.000151  f :     0.000368
      f+1     :     0.000095
      f-1     :     0.000095
      f+2     :     0.000013
      f-2     :     0.000013
      f+3     :     0.000000
      f-3     :     0.000000
      g0      :     0.000000  g :     0.000001
      g+1     :     0.000000
      g-1     :     0.000000
      g+2     :     0.000000
      g-2     :     0.000000
      g+3     :     0.000000
      g-3     :     0.000000
      g+4     :     0.000000
      g-4     :     0.000000
  2 Cus       :     6.740059  s :     6.740059
      pz      :     4.129561  p :    12.166139
      px      :     4.018289
      py      :     4.018289
      dz2     :     1.993682  d :     9.966508
      dxz     :     1.986291
      dyz     :     1.986291
      dx2y2   :     2.000121
      dxy     :     2.000121
      f0      :     0.000151  f :     0.000368
      f+1     :     0.000095
      f-1     :     0.000095
      f+2     :     0.000013
      f-2     :     0.000013
      f+3     :     0.000000
      f-3     :     0.000000
      g0      :     0.000000  g :     0.000001
      g+1     :     0.000000
      g-1     :     0.000000
      g+2     :     0.000000
      g-2     :     0.000000
      g+3     :     0.000000
      g-3     :     0.000000
      g+4     :     0.000000
      g-4     :     0.000000

SPIN
  0 Cus       :    -0.022438  s :    -0.022438
      pz      :     0.367442  p :     0.368518
      px      :     0.000538
      py      :     0.000538
      dz2     :     0.012169  d :     0.003751
      dxz     :    -0.004299
      dyz     :    -0.004299
      dx2y2   :     0.000090
      dxy     :     0.000090
      f0      :     0.000056  f :     0.000070
      f+1     :     0.000006
      f-1     :     0.000006
      f+2     :     0.000001
      f-2     :     0.000001
      f+3     :    -0.000000
      f-3     :    -0.000000
      g0      :     0.000000  g :     0.000000
      g+1     :     0.000000
      g-1     :     0.000000
      g+2     :    -0.000000
      g-2     :    -0.000000
      g+3     :    -0.000000
      g-3     :    -0.000000
      g+4     :    -0.000000
      g-4     :    -0.000000
  1 Cus       :     0.300454  s :     0.300454
      pz      :     0.001708  p :     0.006538
      px      :     0.002415
      py      :     0.002415
      dz2     :     0.019229  d :     0.018063
      dxz     :    -0.000538
      dyz     :    -0.000538
      dx2y2   :    -0.000046
      dxy     :    -0.000046
      f0      :    -0.000005  f :    -0.000005
      f+1     :    -0.000000
      f-1     :    -0.000000
      f+2     :     0.000000
      f-2     :     0.000000
      f+3     :    -0.000000
      f-3     :    -0.000000
      g0      :     0.000000  g :     0.000000
      g+1     :     0.000000
      g-1     :     0.000000
      g+2     :    -0.000000
      g-2     :    -0.000000
      g+3     :    -0.000000
      g-3     :    -0.000000
      g+4     :     0.000000
      g-4     :    -0.000000
  2 Cus       :     0.300454  s :     0.300454
      pz      :     0.001708  p :     0.006538
      px      :     0.002415
      py      :     0.002415
      dz2     :     0.019229  d :     0.018063
      dxz     :    -0.000538
      dyz     :    -0.000538
      dx2y2   :    -0.000046
      dxy     :    -0.000046
      f0      :    -0.000005  f :    -0.000005
      f+1     :    -0.000000
      f-1     :    -0.000000
      f+2     :     0.000000
      f-2     :     0.000000
      f+3     :    -0.000000
      f-3     :    -0.000000
      g0      :     0.000000  g :     0.000000
      g+1     :     0.000000
      g-1     :     0.000000
      g+2     :    -0.000000
      g-2     :    -0.000000
      g+3     :    -0.000000
      g-3     :    -0.000000
      g+4     :     0.000000
      g-4     :     0.000000


                      *****************************
                      * MAYER POPULATION ANALYSIS *
                      *****************************

  NA   - Mulliken gross atomic population
  ZA   - Total nuclear charge
  QA   - Mulliken gross atomic charge
  VA   - Mayer's total valence
  BVA  - Mayer's bonded valence
  FA   - Mayer's free valence

  ATOM       NA         ZA         QA         VA         BVA        FA
  0 Cu    29.3367    29.0000    -0.3367     0.8682     0.8589     0.0093
  1 Cu    28.8317    29.0000     0.1683     1.0368     0.7215     0.3154
  2 Cu    28.8317    29.0000     0.1683     1.0368     0.7215     0.3154

  Mayer bond orders larger than 0.100000
B(  0-Cu,  1-Cu) :   0.4294 B(  0-Cu,  2-Cu) :   0.4294 B(  1-Cu,  2-Cu) :   0.2920 


-------
TIMINGS
-------

Total SCF time: 0 days 0 hours 0 min 4 sec 

Total time                  ....       4.046 sec
Sum of individual times     ....       3.854 sec  ( 95.3%)

Fock matrix formation       ....       3.131 sec  ( 77.4%)
  Split-RI-J                ....       1.791 sec  ( 57.2% of F)
  XC integration            ....       1.178 sec  ( 37.6% of F)
    Basis function eval.    ....       0.063 sec  (  5.4% of XC)
    Density eval.           ....       0.155 sec  ( 13.1% of XC)
    XC-Functional eval.     ....       0.045 sec  (  3.8% of XC)
    XC-Potential eval.      ....       0.363 sec  ( 30.8% of XC)
Diagonalization             ....       0.218 sec  (  5.4%)
Density matrix formation    ....       0.028 sec  (  0.7%)
Population analysis         ....       0.013 sec  (  0.3%)
Initial guess               ....       0.120 sec  (  3.0%)
Orbital Transformation      ....       0.000 sec  (  0.0%)
Orbital Orthonormalization  ....       0.000 sec  (  0.0%)
DIIS solution               ....       0.078 sec  (  1.9%)
Grid generation             ....       0.266 sec  (  6.6%)


-------------------------------------------------------------------------------
                          DFT DISPERSION CORRECTION                            
                                                                               
                              DFTD3 V3.1  Rev 1                                
                          USING Becke-Johnson damping                          
-------------------------------------------------------------------------------
The TPSS functional is recognized
Active option DFTDOPT                   ...         4   

molecular C6(AA) [au] = 1595.875645 


            DFT-D V3
 parameters
 s6 scaling factor         :     1.0000 
 a1 scaling factor         :     0.4535 
 s8 scaling factor         :     1.9435 
 a2 scaling factor         :     4.4752 
 ad hoc parameters k1-k3   :    16.0000     1.3333    -4.0000 

 Edisp/kcal,au: -2.173263655056  -0.003463315716 
 E6   /kcal   :  -0.683393662 
 E8   /kcal   :  -1.489869993 
 % E8         :  68.554498208 

-------------------------   ----------------
Dispersion correction           -0.003463316
-------------------------   ----------------


-------------------------   --------------------
FINAL SINGLE POINT ENERGY     -4921.675032868899
-------------------------   --------------------



           ************************************************************
           *        Program running with 24 parallel MPI-processes    *
           *              working on a common directory               *
           ************************************************************
------------------------------------------------------------------------------
                         ORCA SCF GRADIENT CALCULATION
------------------------------------------------------------------------------

Gradient of the Kohn-Sham DFT energy:
Kohn-Sham wavefunction type      ... UKS
Hartree-Fock exchange scaling    ...    0.000
Number of operators              ...    2
Number of atoms                  ...    3
Basis set dimensions             ...  201
Integral neglect threshold       ... 2.5e-11
Integral primitive cutoff        ... 2.5e-12

Nuclear repulsion gradient       ... done
One Electron Gradient            ... done
Pre-screening matrix             ... done
RI-J gradient                    ... done
Exchange-correlation gradient    ... done
Dispersion correction            ... done

------------------
CARTESIAN GRADIENT
------------------

   1   Cu  :    0.000000023   -0.000000028   -0.000000100
   2   Cu  :   -0.000000004    0.000000012   -0.001121509
   3   Cu  :    0.000000001    0.000000006    0.001121508

Difference to translation invariance:
           :    0.0000000199   -0.0000000096   -0.0000001012

Norm of the cartesian gradient     ...    0.0015860527
RMS gradient                       ...    0.0005286842
MAX gradient                       ...    0.0011215093

-------
TIMINGS
-------

Total SCF gradient time            ...        0.599 sec

One electron gradient       ....       0.016 sec  (  2.7%)
Prescreening matrices       ....       0.139 sec  ( 23.2%)
RI-J Coulomb gradient       ....       0.159 sec  ( 26.6%)
XC gradient                 ....       0.066 sec  ( 11.0%)
------------------------------------------------------------------------------
                         ORCA GEOMETRY RELAXATION STEP
------------------------------------------------------------------------------

Reading the OPT-File                    .... done
Getting information on internals        .... done
Copying old internal coords+grads       .... done
Making the new internal coordinates     .... (new redundants).... done
Validating the new internal coordinates .... (new redundants).... done
Calculating the B-matrix                .... done
Calculating the G,G- and P matrices     .... done
Transforming gradient to internals      .... done
Projecting the internal gradient        .... done
Number of atoms                         ....   3
Number of internal coordinates          ....   4
Current Energy                          .... -4921.675032869 Eh
Current gradient norm                   ....     0.001586053 Eh/bohr
Maximum allowed component of the step   ....  0.300
Current trust radius                    ....  0.300
Evaluating the initial hessian          ....  (Almloef) done
Projecting the Hessian                  .... done
Forming the augmented Hessian           .... done
Diagonalizing the augmented Hessian     .... done
Last element of RFO vector              ....  0.999999769
Lowest eigenvalues of augmented Hessian:
 -0.000001077  1.128240028  1.128240028  2.335297409
Length of the computed step             ....  0.000679165
The final length of the internal step   ....  0.000679165
Converting the step to cartesian space:
 Initial RMS(Int)=    0.0003395824
Transforming coordinates:
 Iter   0:  RMS(Cart)=    0.0002263883 RMS(Int)=    0.0003395824
 Iter   1:  RMS(Cart)=    0.0000000018 RMS(Int)=    0.0000000000
done
Storing new coordinates                 .... done

                                .--------------------.
          ----------------------|Geometry convergence|-------------------------
          Item                value                   Tolerance       Converged
          ---------------------------------------------------------------------
          RMS gradient        0.0007930264            0.0001000000      NO
          MAX gradient        0.0011215417            0.0003000000      NO
          RMS step            0.0003395824            0.0020000000      YES
          MAX step            0.0004802563            0.0040000000      YES
          ........................................................
          Max(Bonds)      0.0003      Max(Angles)    0.00
          Max(Dihed)        0.00      Max(Improp)    0.00
          ---------------------------------------------------------------------

The optimization has not yet converged - more geometry cycles are needed


    ---------------------------------------------------------------------------
                         Redundant Internal Coordinates
                            (Angstroem and degrees)

        Definition                    Value    dE/dq     Step     New-Value
    ----------------------------------------------------------------------------
     1. B(Cu  1,Cu  0)                2.2911 -0.001121  0.0003    2.2914   
     2. B(Cu  2,Cu  0)                2.2911 -0.001122  0.0003    2.2914   
     3. L(Cu  1,Cu  0,Cu  2, 2)       180.00 -0.000000    0.00    180.00   
     4. L(Cu  1,Cu  0,Cu  2, 1)       180.00 -0.000000    0.00    180.00   
    ----------------------------------------------------------------------------

         *************************************************************
         *                GEOMETRY OPTIMIZATION CYCLE   2            *
         *************************************************************
---------------------------------
CARTESIAN COORDINATES (ANGSTROEM)
---------------------------------
  Cu    -0.000000    0.000000    0.000000
  Cu     0.000000   -0.000000    2.291353
  Cu     0.000000   -0.000000   -2.291353

----------------------------
CARTESIAN COORDINATES (A.U.)
----------------------------
  NO LB      ZA    FRAG     MASS         X           Y           Z
   0 Cu   29.0000    0    63.550   -0.000000    0.000000    0.000000
   1 Cu   29.0000    0    63.550    0.000000   -0.000000    4.330030
   2 Cu   29.0000    0    63.550    0.000000   -0.000000   -4.330030

--------------------------------
INTERNAL COORDINATES (ANGSTROEM)
--------------------------------
 Cu     0   0   0     0.000000000000     0.00000000     0.00000000
 Cu     1   0   0     2.291353125683     0.00000000     0.00000000
 Cu     1   2   0     2.291353140664   180.00000000     0.00000000

---------------------------
INTERNAL COORDINATES (A.U.)
---------------------------
 Cu     0   0   0     0.000000000000     0.00000000     0.00000000
 Cu     1   0   0     4.330029883645     0.00000000     0.00000000
 Cu     1   2   0     4.330029911955   180.00000000     0.00000000



           ************************************************************
           *        Program running with 24 parallel MPI-processes    *
           *              working on a common directory               *
           ************************************************************
 One Electron integrals                  ... done
 Pre-screening matrix                    ... done


           ************************************************************
           *        Program running with 24 parallel MPI-processes    *
           *              working on a common directory               *
           ************************************************************

Diagonalization of the overlap matrix:
Smallest eigenvalue                        ... 3.322e-04
Time for diagonalization                   ...    0.009 sec
Threshold for overlap eigenvalues          ... 1.000e-08
Number of eigenvalues below threshold      ... 0
Time for construction of square roots      ...    0.005 sec
Total time needed                          ...    0.014 sec

-------------------
DFT GRID GENERATION
-------------------

General Integration Accuracy     IntAcc      ...  4.670
Radial Grid Type                 RadialGrid  ... Gauss-Chebyshev
Angular Grid (max. acc.)         AngularGrid ... Lebedev-302
Angular grid pruning method      GridPruning ... 3 (G Style)
Weight generation scheme         WeightScheme... Becke
Basis function cutoff            BFCut       ...    1.0000e-11
Integration weight cutoff        WCut        ...    1.0000e-14
Grids for H and He will be reduced by one unit

# of grid points (after initial pruning)     ...  28668 (   0.0 sec)
# of grid points (after weights+screening)   ...  28508 (   0.0 sec)
nearest neighbour list constructed           ...    0.0 sec
Grid point re-assignment to atoms done       ...    0.0 sec
Grid point division into batches done        ...    0.2 sec
Reduced shell lists constructed in    0.2 sec

Total number of grid points                  ...    28508
Total number of batches                      ...      447
Average number of points per batch           ...       63
Average number of grid points per atom       ...     9503
Average number of shells per batch           ...    19.10 (33.51%)
Average number of basis functions per batch  ...    56.10 (27.91%)
Average number of large shells per batch     ...    16.15 (84.55%)
Average number of large basis fcns per batch ...    46.85 (83.51%)
Maximum spatial batch extension              ...  26.18, 26.18,  4.32 au
Average spatial batch extension              ...   0.43,  0.42,  0.18 au

Time for grid setup =    0.264 sec

--------------
SCF ITERATIONS
--------------
ITER       Energy         Delta-E        Max-DP      RMS-DP      [F,P]     Damp
               ***  Starting incremental Fock matrix formation  ***
  0  -4921.6715713439   0.000000000000 0.00003084  0.00000048  0.0001695 0.7000
  1  -4921.6715713596  -0.000000015744 0.00002995  0.00000048  0.0001187 0.7000
                               ***Turning on DIIS***
  2  -4921.6715712872   0.000000072414 0.00008413  0.00000138  0.0000831 0.0000
  3  -4921.6715711884   0.000000098847 0.00002250  0.00000026  0.0000053 0.0000
  4  -4921.6715712479  -0.000000059482 0.00001047  0.00000011  0.0000118 0.0000
  5  -4921.6715711917   0.000000056180 0.00000454  0.00000006  0.0000062 0.0000
  6  -4921.6715712223  -0.000000030578 0.00000758  0.00000008  0.0000012 0.0000
  7  -4921.6715711698   0.000000052506 0.00000202  0.00000002  0.0000018 0.0000
                            ***DIIS convergence achieved***

               *****************************************************
               *                     SUCCESS                       *
               *           SCF CONVERGED AFTER   8 CYCLES          *
               *****************************************************

Total Energy       :        -4921.67157113 Eh         -133925.49209 eV
  Last Energy change         ...    3.8349e-08  Tolerance :   1.0000e-08
  Last MAX-Density change    ...    4.5446e-06  Tolerance :   1.0000e-07
             **** THE GBW FILE WAS UPDATED (Cu03N0_LIN.gbw) ****
             **** DENSITY FILE WAS UPDATED (Cu03N0_LIN.scfp) ****
             **** ENERGY FILE WAS UPDATED (Cu03N0_LIN.en.tmp) ****
----------------------
UHF SPIN CONTAMINATION
----------------------

Warning: in a DFT calculation there is little theoretical justification to 
         calculate <S**2> as in Hartree-Fock theory. We will do it anyways
         but you should keep in mind that the values have only limited relevance

Expectation value of <S**2>     :     0.758072
Ideal value S*(S+1) for S=0.5   :     0.750000
Deviation                       :     0.008072

             **** THE GBW FILE WAS UPDATED (Cu03N0_LIN.gbw) ****
             **** DENSITY FILE WAS UPDATED (Cu03N0_LIN.scfp) ****
Total SCF time: 0 days 0 hours 0 min 2 sec 


-------------------------------------------------------------------------------
                          DFT DISPERSION CORRECTION                            
                                                                               
                              DFTD3 V3.1  Rev 1                                
                          USING Becke-Johnson damping                          
-------------------------------------------------------------------------------
-------------------------   ----------------
Dispersion correction           -0.003463045
-------------------------   ----------------


-------------------------   --------------------
FINAL SINGLE POINT ENERGY     -4921.675034176315
-------------------------   --------------------



           ************************************************************
           *        Program running with 24 parallel MPI-processes    *
           *              working on a common directory               *
           ************************************************************
------------------------------------------------------------------------------
                         ORCA SCF GRADIENT CALCULATION
------------------------------------------------------------------------------

Gradient of the Kohn-Sham DFT energy:
Kohn-Sham wavefunction type      ... UKS
Hartree-Fock exchange scaling    ...    0.000
Number of operators              ...    2
Number of atoms                  ...    3
Basis set dimensions             ...  201
Integral neglect threshold       ... 2.5e-11
Integral primitive cutoff        ... 2.5e-12

Nuclear repulsion gradient       ... done
One Electron Gradient            ... done
Pre-screening matrix             ... done
RI-J gradient                    ... done
Exchange-correlation gradient    ... done
Dispersion correction            ... done

------------------
CARTESIAN GRADIENT
------------------

   1   Cu  :    0.000000018   -0.000000037   -0.000000029
   2   Cu  :   -0.000000001    0.000000006   -0.001089074
   3   Cu  :   -0.000000001    0.000000033    0.001089084

Difference to translation invariance:
           :    0.0000000156    0.0000000025   -0.0000000189

Norm of the cartesian gradient     ...    0.0015401899
RMS gradient                       ...    0.0005133966
MAX gradient                       ...    0.0010890837

-------
TIMINGS
-------

Total SCF gradient time            ...        0.555 sec

One electron gradient       ....       0.005 sec  (  0.9%)
Prescreening matrices       ....       0.137 sec  ( 24.8%)
RI-J Coulomb gradient       ....       0.122 sec  ( 22.1%)
XC gradient                 ....       0.068 sec  ( 12.2%)
------------------------------------------------------------------------------
                         ORCA GEOMETRY RELAXATION STEP
------------------------------------------------------------------------------

Reading the OPT-File                    .... done
Getting information on internals        .... done
Copying old internal coords+grads       .... done
Making the new internal coordinates     .... (new redundants).... done
Validating the new internal coordinates .... (new redundants).... done
Calculating the B-matrix                .... done
Calculating the G,G- and P matrices     .... done
Transforming gradient to internals      .... done
Projecting the internal gradient        .... done
Number of atoms                         ....   3
Number of internal coordinates          ....   4
Current Energy                          .... -4921.675034176 Eh
Current gradient norm                   ....     0.001540190 Eh/bohr
Maximum allowed component of the step   ....  0.300
Current trust radius                    ....  0.300
Updating the Hessian (BFGS)             .... done
Forming the augmented Hessian           .... done
Diagonalizing the augmented Hessian     .... done
Last element of RFO vector              ....  0.999740268
Lowest eigenvalues of augmented Hessian:
 -0.000035111  0.067563404  1.128240028  1.128240029
Length of the computed step             ....  0.022796215
The final length of the internal step   ....  0.022796215
Converting the step to cartesian space:
 Initial RMS(Int)=    0.0113981076
Transforming coordinates:
 Iter   0:  RMS(Cart)=    0.0075987384 RMS(Int)=    0.0113981076
 Iter   1:  RMS(Cart)=    0.0000000225 RMS(Int)=    0.0000000241
done
Storing new coordinates                 .... done

                                .--------------------.
          ----------------------|Geometry convergence|-------------------------
          Item                value                   Tolerance       Converged
          ---------------------------------------------------------------------
          Energy change      -0.0000013074            0.0000050000      YES
          RMS gradient        0.0007700949            0.0001000000      NO
          MAX gradient        0.0010890900            0.0003000000      NO
          RMS step            0.0113981076            0.0020000000      NO
          MAX step            0.0161195248            0.0040000000      NO
          ........................................................
          Max(Bonds)      0.0085      Max(Angles)    0.00
          Max(Dihed)        0.00      Max(Improp)    0.00
          ---------------------------------------------------------------------

The optimization has not yet converged - more geometry cycles are needed


    ---------------------------------------------------------------------------
                         Redundant Internal Coordinates
                            (Angstroem and degrees)

        Definition                    Value    dE/dq     Step     New-Value
    ----------------------------------------------------------------------------
     1. B(Cu  1,Cu  0)                2.2914 -0.001089  0.0085    2.2999   
     2. B(Cu  2,Cu  0)                2.2914 -0.001089  0.0085    2.2999   
     3. L(Cu  1,Cu  0,Cu  2, 2)       180.00 -0.000000   -0.00    180.00   
     4. L(Cu  1,Cu  0,Cu  2, 1)       180.00 -0.000000    0.00    180.00   
    ----------------------------------------------------------------------------

         *************************************************************
         *                GEOMETRY OPTIMIZATION CYCLE   3            *
         *************************************************************
---------------------------------
CARTESIAN COORDINATES (ANGSTROEM)
---------------------------------
  Cu     0.000000    0.000000    0.000000
  Cu    -0.000000   -0.000000    2.299883
  Cu    -0.000000   -0.000000   -2.299883

----------------------------
CARTESIAN COORDINATES (A.U.)
----------------------------
  NO LB      ZA    FRAG     MASS         X           Y           Z
   0 Cu   29.0000    0    63.550    0.000000    0.000000    0.000000
   1 Cu   29.0000    0    63.550   -0.000000   -0.000000    4.346149
   2 Cu   29.0000    0    63.550   -0.000000   -0.000000   -4.346149

--------------------------------
INTERNAL COORDINATES (ANGSTROEM)
--------------------------------
 Cu     0   0   0     0.000000000000     0.00000000     0.00000000
 Cu     1   0   0     2.299883034630     0.00000000     0.00000000
 Cu     1   2   0     2.299883225822   179.99999447     0.00000000

---------------------------
INTERNAL COORDINATES (A.U.)
---------------------------
 Cu     0   0   0     0.000000000000     0.00000000     0.00000000
 Cu     1   0   0     4.346149075503     0.00000000     0.00000000
 Cu     1   2   0     4.346149436804   179.99999447     0.00000000



           ************************************************************
           *        Program running with 24 parallel MPI-processes    *
           *              working on a common directory               *
           ************************************************************
 One Electron integrals                  ... done
 Pre-screening matrix                    ... done


           ************************************************************
           *        Program running with 24 parallel MPI-processes    *
           *              working on a common directory               *
           ************************************************************

Diagonalization of the overlap matrix:
Smallest eigenvalue                        ... 3.363e-04
Time for diagonalization                   ...    0.009 sec
Threshold for overlap eigenvalues          ... 1.000e-08
Number of eigenvalues below threshold      ... 0
Time for construction of square roots      ...    0.006 sec
Total time needed                          ...    0.015 sec

-------------------
DFT GRID GENERATION
-------------------

General Integration Accuracy     IntAcc      ...  4.670
Radial Grid Type                 RadialGrid  ... Gauss-Chebyshev
Angular Grid (max. acc.)         AngularGrid ... Lebedev-302
Angular grid pruning method      GridPruning ... 3 (G Style)
Weight generation scheme         WeightScheme... Becke
Basis function cutoff            BFCut       ...    1.0000e-11
Integration weight cutoff        WCut        ...    1.0000e-14
Grids for H and He will be reduced by one unit

# of grid points (after initial pruning)     ...  28668 (   0.0 sec)
# of grid points (after weights+screening)   ...  28508 (   0.0 sec)
nearest neighbour list constructed           ...    0.0 sec
Grid point re-assignment to atoms done       ...    0.0 sec
Grid point division into batches done        ...    0.2 sec
Reduced shell lists constructed in    0.2 sec

Total number of grid points                  ...    28508
Total number of batches                      ...      447
Average number of points per batch           ...       63
Average number of grid points per atom       ...     9503
Average number of shells per batch           ...    19.10 (33.51%)
Average number of basis functions per batch  ...    56.10 (27.91%)
Average number of large shells per batch     ...    16.15 (84.55%)
Average number of large basis fcns per batch ...    46.85 (83.51%)
Maximum spatial batch extension              ...  26.18, 26.18,  4.32 au
Average spatial batch extension              ...   0.42,  0.42,  0.18 au

Time for grid setup =    0.259 sec

--------------
SCF ITERATIONS
--------------
ITER       Energy         Delta-E        Max-DP      RMS-DP      [F,P]     Damp
               ***  Starting incremental Fock matrix formation  ***
  0  -4921.6716007316   0.000000000000 0.00074700  0.00001253  0.0056771 0.7000
  1  -4921.6716027088  -0.000001977237 0.00075919  0.00001240  0.0039753 0.7000
                               ***Turning on DIIS***
  2  -4921.6716039365  -0.000001227659 0.00204847  0.00003287  0.0027826 0.0000
  3  -4921.6716066494  -0.000002712912 0.00063930  0.00000833  0.0001519 0.0000
  4  -4921.6716063287   0.000000320676 0.00042479  0.00000404  0.0003180 0.0000
  5  -4921.6716067182  -0.000000389496 0.00006434  0.00000111  0.0003226 0.0000
  6  -4921.6716068690  -0.000000150746 0.00003922  0.00000051  0.0000759 0.0000
  7  -4921.6716068647   0.000000004276 0.00003046  0.00000038  0.0000621 0.0000
  8  -4921.6716068748  -0.000000010135 0.00001221  0.00000016  0.0000030 0.0000
  9  -4921.6716069161  -0.000000041249 0.00000546  0.00000009  0.0000011 0.0000
[...]
      dxy     :     1.999718
      f0      :     0.000418  f :     0.000761
      f+1     :     0.000159
      f-1     :     0.000159
      f+2     :     0.000013
      f-2     :     0.000013
      f+3     :     0.000000
      f-3     :     0.000000
      g0      :     0.000001  g :     0.000002
      g+1     :     0.000001
      g-1     :     0.000001
      g+2     :     0.000000
      g-2     :     0.000000
      g+3     :     0.000000
      g-3     :     0.000000
      g+4     :     0.000000
      g-4     :     0.000000
  1 Cus       :     6.741602  s :     6.741602
      pz      :     4.128635  p :    12.164625
      px      :     4.017995
      py      :     4.017995
      dz2     :     1.993602  d :     9.966968
      dxz     :     1.986561
      dyz     :     1.986561
      dx2y2   :     2.000122
      dxy     :     2.000122
      f0      :     0.000145  f :     0.000354
      f+1     :     0.000092
      f-1     :     0.000092
      f+2     :     0.000013
      f-2     :     0.000013
      f+3     :     0.000000
      f-3     :     0.000000
      g0      :     0.000000  g :     0.000001
      g+1     :     0.000000
      g-1     :     0.000000
      g+2     :     0.000000
      g-2     :     0.000000
      g+3     :     0.000000
      g-3     :     0.000000
      g+4     :     0.000000
      g-4     :     0.000000
  2 Cus       :     6.741602  s :     6.741602
      pz      :     4.128635  p :    12.164625
      px      :     4.017995
      py      :     4.017995
      dz2     :     1.993602  d :     9.966968
      dxz     :     1.986561
      dyz     :     1.986561
      dx2y2   :     2.000122
      dxy     :     2.000122
      f0      :     0.000145  f :     0.000354
      f+1     :     0.000092
      f-1     :     0.000092
      f+2     :     0.000013
      f-2     :     0.000013
      f+3     :     0.000000
      f-3     :     0.000000
      g0      :     0.000000  g :     0.000001
      g+1     :     0.000000
      g-1     :     0.000000
      g+2     :     0.000000
      g-2     :     0.000000
      g+3     :     0.000000
      g-3     :     0.000000
      g+4     :     0.000000
      g-4     :     0.000000

SPIN
  0 Cus       :    -0.022843  s :    -0.022843
      pz      :     0.366201  p :     0.367268
      px      :     0.000533
      py      :     0.000533
      dz2     :     0.012249  d :     0.003945
      dxz     :    -0.004241
      dyz     :    -0.004241
      dx2y2   :     0.000089
      dxy     :     0.000089
      f0      :     0.000055  f :     0.000069
      f+1     :     0.000006
      f-1     :     0.000006
      f+2     :     0.000001
      f-2     :     0.000001
      f+3     :    -0.000000
      f-3     :    -0.000000
      g0      :     0.000000  g :     0.000000
      g+1     :     0.000000
      g-1     :     0.000000
      g+2     :    -0.000000
      g-2     :    -0.000000
      g+3     :    -0.000000
      g-3     :    -0.000000
      g+4     :    -0.000000
      g-4     :    -0.000000
  1 Cus       :     0.301649  s :     0.301649
      pz      :     0.001445  p :     0.006209
      px      :     0.002382
      py      :     0.002382
      dz2     :     0.019080  d :     0.017928
      dxz     :    -0.000531
      dyz     :    -0.000531
      dx2y2   :    -0.000045
      dxy     :    -0.000045
      f0      :    -0.000005  f :    -0.000005
      f+1     :    -0.000000
      f-1     :    -0.000000
      f+2     :     0.000000
      f-2     :     0.000000
      f+3     :    -0.000000
      f-3     :    -0.000000
      g0      :     0.000000  g :     0.000000
      g+1     :     0.000000
      g-1     :     0.000000
      g+2     :    -0.000000
      g-2     :    -0.000000
      g+3     :    -0.000000
      g-3     :    -0.000000
      g+4     :     0.000000
      g-4     :    -0.000000
  2 Cus       :     0.301648  s :     0.301648
      pz      :     0.001445  p :     0.006210
      px      :     0.002382
      py      :     0.002382
      dz2     :     0.019080  d :     0.017928
      dxz     :    -0.000531
      dyz     :    -0.000531
      dx2y2   :    -0.000045
      dxy     :    -0.000045
      f0      :    -0.000005  f :    -0.000005
      f+1     :    -0.000000
      f-1     :    -0.000000
      f+2     :     0.000000
      f-2     :     0.000000
      f+3     :    -0.000000
      f-3     :    -0.000000
      g0      :     0.000000  g :     0.000000
      g+1     :     0.000000
      g-1     :     0.000000
      g+2     :    -0.000000
      g-2     :    -0.000000
      g+3     :    -0.000000
      g-3     :    -0.000000
      g+4     :     0.000000
      g-4     :    -0.000000


                      *****************************
                      * MAYER POPULATION ANALYSIS *
                      *****************************

  NA   - Mulliken gross atomic population
  ZA   - Total nuclear charge
  QA   - Mulliken gross atomic charge
  VA   - Mayer's total valence
  BVA  - Mayer's bonded valence
  FA   - Mayer's free valence

  ATOM       NA         ZA         QA         VA         BVA        FA
  0 Cu    29.3385    29.0000    -0.3385     0.8876     0.8784     0.0092
  1 Cu    28.8307    29.0000     0.1693     1.0379     0.7259     0.3120
  2 Cu    28.8307    29.0000     0.1693     1.0379     0.7259     0.3120

  Mayer bond orders larger than 0.100000
B(  0-Cu,  1-Cu) :   0.4392 B(  0-Cu,  2-Cu) :   0.4392 B(  1-Cu,  2-Cu) :   0.2867 


-------
TIMINGS
-------

Total SCF time: 0 days 0 hours 0 min 1 sec 

Total time                  ....       1.969 sec
Sum of individual times     ....       1.793 sec  ( 91.1%)

Fock matrix formation       ....       1.373 sec  ( 69.7%)
  Split-RI-J                ....       0.856 sec  ( 62.3% of F)
  XC integration            ....       0.358 sec  ( 26.1% of F)
    Basis function eval.    ....       0.029 sec  (  8.2% of XC)
    Density eval.           ....       0.075 sec  ( 21.0% of XC)
    XC-Functional eval.     ....       0.021 sec  (  5.9% of XC)
    XC-Potential eval.      ....       0.130 sec  ( 36.5% of XC)
Diagonalization             ....       0.102 sec  (  5.2%)
Density matrix formation    ....       0.012 sec  (  0.6%)
Population analysis         ....       0.013 sec  (  0.7%)
Initial guess               ....       0.025 sec  (  1.3%)
Orbital Transformation      ....       0.000 sec  (  0.0%)
Orbital Orthonormalization  ....       0.017 sec  (  0.9%)
DIIS solution               ....       0.031 sec  (  1.6%)
Grid generation             ....       0.236 sec  ( 12.0%)


-------------------------------------------------------------------------------
                          DFT DISPERSION CORRECTION                            
                                                                               
                              DFTD3 V3.1  Rev 1                                
                          USING Becke-Johnson damping                          
-------------------------------------------------------------------------------
The TPSS functional is recognized
Active option DFTDOPT                   ...         4   

molecular C6(AA) [au] = 1596.535946 


            DFT-D V3
 parameters
 s6 scaling factor         :     1.0000 
 a1 scaling factor         :     0.4535 
 s8 scaling factor         :     1.9435 
 a2 scaling factor         :     4.4752 
 ad hoc parameters k1-k3   :    16.0000     1.3333    -4.0000 

 Edisp/kcal,au: -2.167248982993  -0.003453730727 
 E6   /kcal   :  -0.681773702 
 E8   /kcal   :  -1.485475281 
 % E8         :  68.541976145 

-------------------------   ----------------
Dispersion correction           -0.003453731
-------------------------   ----------------


-------------------------   --------------------
FINAL SINGLE POINT ENERGY     -4921.675061177385
-------------------------   --------------------

                                *** OPTIMIZATION RUN DONE ***

                            ***************************************
                            *     ORCA property calculations      *
                            ***************************************

                                    ---------------------
                                    Active property flags
                                    ---------------------
   (+) Dipole Moment


------------------------------------------------------------------------------
                       ORCA ELECTRIC PROPERTIES CALCULATION
------------------------------------------------------------------------------

Dipole Moment Calculation                       ... on
Quadrupole Moment Calculation                   ... off
Polarizability Calculation                      ... off
GBWName                                         ... Cu03N0_LIN.gbw
Electron density file                           ... Cu03N0_LIN.scfp
The origin for moment calculation is the CENTER OF MASS  = ( 0.000000, -0.000000  0.000000)

-------------
DIPOLE MOMENT
-------------
                                X             Y             Z
Electronic contribution:     -0.00000      -0.00000       0.00000
Nuclear contribution   :      0.00000      -0.00000       0.00000
                        -----------------------------------------
Total Dipole Moment    :     -0.00000      -0.00000       0.00000
                        -----------------------------------------
Magnitude (a.u.)       :      0.00000
Magnitude (Debye)      :      0.00001



--------------------
Rotational spectrum 
--------------------
 
Rotational constants in cm-1:     0.000000     0.025069     0.025069 
Rotational constants in MHz :     0.000000   751.549584   751.549584 

 Dipole components along the rotational axes: 
x,y,z [a.u.] :    -0.000002    -0.000000    -0.000000 
x,y,z [Debye]:    -0.000005    -0.000000    -0.000000 

 

----------------------------------------------------------------------------
                           ORCA NUMERICAL FREQUENCIES
                              (24-process run)
----------------------------------------------------------------------------

Number of atoms                ... 3
Central differences            ... used
Number of displacements        ... 18
Numerical increment            ... 5.000e-03 bohr
IR-spectrum generation         ... on
Raman-spectrum generation      ... off
Surface Crossing Hessian       ... off

 WARNING: There are more processes than displacements to do
  ====> : Reducing number of processes to   9

The output will be reduced. Please look at the following files:
SCF program output             ... >Cu03N0_LIN.lastscf
Integral program output        ... >Cu03N0_LIN.lastint
Gradient program output        ... >Cu03N0_LIN.lastgrad
Dipole moment program output   ... >Cu03N0_LIN.lastmom
AutoCI program output          ... >Cu03N0_LIN.lastautoci


         <<< Energy and Gradient at the input geometry >>>

        <<< Energy and Gradient at displaced geometries >>>
             <<<Displacing   2/coordinate 1 (+)>>>
             <<<Displacing   1/coordinate 2 (+)>>>
             <<<Displacing   2/coordinate 2 (+)>>>
             <<<Displacing   2/coordinate 3 (+)>>>
             <<<Displacing   3/coordinate 3 (+)>>>
             <<<Displacing   3/coordinate 2 (+)>>>
             <<<Displacing   1/coordinate 3 (+)>>>
             <<<Displacing   3/coordinate 1 (+)>>>
             <<<Displacing   1/coordinate 1 (+)>>>
             <<<Displacing   2/coordinate 2 (-)>>>
             <<<Displacing   2/coordinate 1 (-)>>>
             <<<Displacing   1/coordinate 3 (-)>>>
             <<<Displacing   1/coordinate 1 (-)>>>
             <<<Displacing   1/coordinate 2 (-)>>>
             <<<Displacing   3/coordinate 1 (-)>>>
             <<<Displacing   3/coordinate 2 (-)>>>
             <<<Displacing   3/coordinate 3 (-)>>>
             <<<Displacing   2/coordinate 3 (-)>>>

-----------------------
VIBRATIONAL FREQUENCIES
-----------------------

Scaling factor for frequencies =  1.000000000 (already applied!)

   0:         0.00 cm**-1
   1:         0.00 cm**-1
   2:         0.00 cm**-1
   3:         0.00 cm**-1
   4:         0.00 cm**-1
   5:         0.00 cm**-1
   6:       -51.36 cm**-1 ***imaginary mode***
   7:       163.20 cm**-1
   8:       266.25 cm**-1


------------
NORMAL MODES
------------

These modes are the cartesian displacements weighted by the diagonal matrix
M(i,i)=1/sqrt(m[i]) where m[i] is the mass of the displaced atom
Thus, these vectors are normalized but *not* orthogonal

                  0          1          2          3          4          5    
      0       0.000000   0.000000   0.000000   0.000000   0.000000   0.000000
      1       0.000000   0.000000   0.000000   0.000000   0.000000   0.000000
      2       0.000000   0.000000   0.000000   0.000000   0.000000   0.000000
      3       0.000000   0.000000   0.000000   0.000000   0.000000   0.000000
      4       0.000000   0.000000   0.000000   0.000000   0.000000   0.000000
      5       0.000000   0.000000   0.000000   0.000000   0.000000   0.000000
      6       0.000000   0.000000   0.000000   0.000000   0.000000   0.000000
      7       0.000000   0.000000   0.000000   0.000000   0.000000   0.000000
      8       0.000000   0.000000   0.000000   0.000000   0.000000   0.000000
                   6          7          8    
      0       0.170315  -0.000002  -0.000002
      1       0.798536  -0.000011  -0.000008
      2       0.000008   0.000003   0.816497
      3      -0.085158   0.000001   0.000001
      4      -0.399268   0.000006   0.000004
      5       0.000006   0.707105  -0.408251
      6      -0.085158   0.000001   0.000001
      7      -0.399268   0.000006   0.000004
      8      -0.000014  -0.707108  -0.408246


-----------
IR SPECTRUM  
-----------

 Mode    freq (cm**-1)   T**2         TX         TY         TZ
-------------------------------------------------------------------
   7:       163.20    0.000000  (  0.000011  -0.000005   0.000020)
   8:       266.25    1.549262  (  0.000006  -0.000009  -1.244693)

The first frequency considered to be a vibration is 7
The total number of vibrations considered is 2


--------------------------
THERMOCHEMISTRY AT 298.15K
--------------------------

Temperature         ... 298.15 K
Pressure            ... 1.00 atm
Total Mass          ... 190.65 AMU
The molecule is recognized as being linear

Throughout the following assumptions are being made:
  (1) The electronic state is orbitally nondegenerate
      but the spin degeneracy is treated
  (2) There are no thermally accessible electronically excited states
  (3) Hindered rotations indicated by low frequency modes are not
      treated as such but are treated as vibrations and this may
      cause some error
  (4) All equations used are the standard statistical mechanics
      equations for an ideal gas
  (5) All vibrations are strictly harmonic

freq.     163.20  E(vib)   ...       0.39 
freq.     266.25  E(vib)   ...       0.29 

------------
INNER ENERGY
------------

The inner energy is: U= E(el) + E(ZPE) + E(vib) + E(rot) + E(trans)
    E(el)   - is the total energy from the electronic structure calculation
              = E(kin-el) + E(nuc-el) + E(el-el) + E(nuc-nuc)
    E(ZPE)  - the the zero temperature vibrational energy from the frequency calculation
    E(vib)  - the the finite temperature correction to E(ZPE) due to population
              of excited vibrational states
    E(rot)  - is the rotational thermal energy
    E(trans)- is the translational thermal energy

Summary of contributions to the inner energy U:
Electronic energy                ...  -4921.67506152 Eh
Zero point energy                ...      0.00097837 Eh       0.61 kcal/mol
Thermal vibrational correction   ...      0.00108480 Eh       0.68 kcal/mol
Thermal rotational correction    ...      0.00094418 Eh       0.59 kcal/mol
Thermal translational correction ...      0.00141627 Eh       0.89 kcal/mol
-----------------------------------------------------------------------
Total thermal energy                  -4921.67063790 Eh


Summary of corrections to the electronic energy:
(perhaps to be used in another calculation)
Total thermal correction                  0.00344525 Eh       2.16 kcal/mol
Non-thermal (ZPE) correction              0.00097837 Eh       0.61 kcal/mol
-----------------------------------------------------------------------
Total correction                          0.00442362 Eh       2.78 kcal/mol


--------
ENTHALPY
--------

The enthalpy is H = U + kB*T
                kB is Boltzmann's constant
Total free energy                 ...  -4921.67063790 Eh 
Thermal Enthalpy correction       ...      0.00094421 Eh       0.59 kcal/mol
-----------------------------------------------------------------------
Total Enthalpy                    ...  -4921.66969369 Eh


Note: Rotational entropy computed according to Herzberg 
Infrared and Raman Spectra, Chapter V,1, Van Nostrand Reinhold, 1945 
Point Group:  Dinfh, Symmetry Number:   2  
Rotational constants in cm-1:     0.000000     0.025069     0.025069 

Vibrational entropy computed according to the QRRHO of S. Grimme
Chem.Eur.J. 2012 18 9955


-------
ENTROPY
-------

The entropy contributions are T*S = T*(S(el)+S(vib)+S(rot)+S(trans))
     S(el)   - electronic entropy
     S(vib)  - vibrational entropy
     S(rot)  - rotational entropy
     S(trans)- translational entropy
The entropies will be listed as mutliplied by the temperature to get
units of energy

Electronic entropy                ...      0.00065446 Eh      0.41 kcal/mol
Vibrational entropy               ...      0.00195762 Eh      1.23 kcal/mol
Rotational entropy                ...      0.00880617 Eh      5.53 kcal/mol
Translational entropy             ...      0.01978512 Eh     12.42 kcal/mol
-----------------------------------------------------------------------
Final entropy term                ...      0.03120337 Eh     19.58 kcal/mol

In case the symmetry of your molecule has not been determined correctly
or in case you have a reason to use a different symmetry number we print 
out the resulting rotational entropy values for sn=1,12 :
 --------------------------------------------------------
|  sn= 1 | S(rot)=      -0.00175540 Eh     -1.10 kcal/mol|
|  sn= 2 | S(rot)=      -0.00240986 Eh     -1.51 kcal/mol|
|  sn= 3 | S(rot)=      -0.00279269 Eh     -1.75 kcal/mol|
|  sn= 4 | S(rot)=      -0.00306432 Eh     -1.92 kcal/mol|
|  sn= 5 | S(rot)=      -0.00327500 Eh     -2.06 kcal/mol|
|  sn= 6 | S(rot)=      -0.00344715 Eh     -2.16 kcal/mol|
|  sn= 7 | S(rot)=      -0.00359269 Eh     -2.25 kcal/mol|
|  sn= 8 | S(rot)=      -0.00371877 Eh     -2.33 kcal/mol|
|  sn= 9 | S(rot)=      -0.00382998 Eh     -2.40 kcal/mol|
|  sn=10 | S(rot)=      -0.00392946 Eh     -2.47 kcal/mol|
|  sn=11 | S(rot)=      -0.00401945 Eh     -2.52 kcal/mol|
|  sn=12 | S(rot)=      -0.00410161 Eh     -2.57 kcal/mol|
 --------------------------------------------------------


-------------------
GIBBS FREE ENERGY
-------------------

The Gibbs free energy is G = H - T*S

Total enthalpy                    ...  -4921.66969369 Eh 
Total entropy correction          ...     -0.03120337 Eh    -19.58 kcal/mol
-----------------------------------------------------------------------
Final Gibbs free energy         ...  -4921.70089706 Eh

For completeness - the Gibbs free energy minus the electronic energy
G-E(el)                           ...     -0.02583553 Eh    -16.21 kcal/mol


Total Time for Numerical Frequencies  :        35.327 sec

Timings for individual modules:

Sum of individual times         ...       20.356 sec (=   0.339 min)
GTO integral calculation        ...        3.253 sec (=   0.054 min)  16.0 %
SCF iterations                  ...       13.241 sec (=   0.221 min)  65.0 %
SCF Gradient evaluation         ...        3.745 sec (=   0.062 min)  18.4 %
Geometry relaxation             ...        0.117 sec (=   0.002 min)   0.6 %
                             ****ORCA TERMINATED NORMALLY****
TOTAL RUN TIME: 0 days 0 hours 0 minutes 53 seconds 547 msec
