Optimizer: Optimization complete!
 3 displacements needed.
 1 2 3
Warning: used thermodynamics relations inappropriate for low-frequency modes: ['510.1539']
At level 1: Red. Int., RFO, no backsteps, dynamic trust
At level 1: Red. Int., RFO, no backsteps, dynamic trust
At level 1: Red. Int., RFO, no backsteps, dynamic trust
Schieber, R. Galvelis, P. Kraus, H. Kruse, R. Di Remigio,
    A. Alenaizan, A. M. James, S. Lehtola, J. P. Misiewicz, M. Scheurer,
    R. A. Shaw, J. B. Schriber, Y. Xie, Z. L. Glick, D. A. Sirianni,
    J. S. O'Brien, J. M. Waldrop, A. Kumar, E. G. Hohenstein,
    B. P. Pritchard, B. R. Brooks, H. F. Schaefer III, A. Yu. Sokolov,
    K. Patkowski, A. E. DePrince III, U. Bozkaya, R. A. King,
    F. A. Evangelista, J. M. Turney, T. D. Crawford, C. D. Sherrill,
    J. Chem. Phys. 152(18) 184108 (2020). https://doi.org/10.1063/5.0006002

                            Additional Code Authors
    E. T. Seidl, C. L. Janssen, E. F. Valeev, M. L. Leininger,
    J. F. Gonthier, R. M. Richard, H. R. McAlexander, M. Saitow, X. Wang,
    P. Verma, and M. H. Lechner

             Previous Authors, Complete List of Code Contributors,
                       and Citations for Specific Modules
    https://github.com/psi4/psi4/blob/master/codemeta.json
    https://github.com/psi4/psi4/graphs/contributors
    http://psicode.org/psi4manual/master/introduction.html#citing-psifour

    -----------------------------------------------------------------------


    Psi4 started on: Tuesday, 02 November 2021 10:58AM

    Process ID: 15395
    Host:       compute405.bc4.acrc.priv
    PSIDATADIR: /mnt/storage/home/zw18965/.conda/envs/p4env/share/psi4
    Memory:     500.0 MiB
    Threads:    28
    
  ==> Input File <==

--------------------------------------------------------------------------
memory 120 GB

molecule {
0 1
Ag       0.000000    0.000000    0.317712 
F        0.000000    0.000000   -1.659163 
 }

set dynamic_level 1
set basis Def2-TZVPPD

optimize("MN15-D3BJ")
frequencies("MN15-D3BJ")
--------------------------------------------------------------------------

  Memory set to 111.759 GiB by Python driver.

Scratch directory: /tmp/
gradient() will perform analytic gradient computation.

*** tstart() called on compute405.bc4.acrc.priv
*** at Tue Nov  2 10:58:52 2021

   => Loading Basis Set <=

    Name: DEF2-TZVPPD
    Role: ORBITAL
    Keyword: BASIS
    atoms 1 entry AG         line  2174 (ECP: line  3646) file /mnt/storage/home/zw18965/.conda/envs/p4env/share/psi4/basis/def2-tzvppd.gbs 
    atoms 2 entry F          line   257 file /mnt/storage/home/zw18965/.conda/envs/p4env/share/psi4/basis/def2-tzvppd.gbs 

    !!!  WARNING: ECP capability is in beta. Please check occupations closely.  !!!

   => MN15-D3(BJ): Empirical Dispersion <=

    Grimme's -D3 (BJ-damping) Dispersion Correction
    Grimme S.; Ehrlich S.; Goerigk L. (2011), J. Comput. Chem., 32: 1456
    Parametrisation from:    L. Goerigk, A. Hansen, C. Bauer, S. Ehrlich, A. Najibi, S. Grimme, Phys. Chem. Chem. Phys. 19, 32184-32215, 2017

        s6 =       1.000000
        s8 =       2.097100
        a1 =       0.786200
        a2 =       7.592300


         ---------------------------------------------------------
                                   SCF
               by Justin Turney, Rob Parrish, Andy Simmonett
                          and Daniel G. A. Smith
                              RKS Reference
                       28 Threads, 114440 MiB Core
         ---------------------------------------------------------

  ==> Geometry <==

    Molecular point group: c2v
    Full point group: C_inf_v

    Geometry (in Angstrom), charge = 0, multiplicity = 1:

       Center              X                  Y                   Z               Mass       
    ------------   -----------------  -----------------  -----------------  -----------------
         AG           0.000000000000     0.000000000000     0.298303619952   106.905091600000
         F            0.000000000000     0.000000000000    -1.678571380048    18.998403162730

  Running in c2v symmetry.

  Rotational constants: A = ************  B =      0.26740  C =      0.26740 [cm^-1]
  Rotational constants: A = ************  B =   8016.43133  C =   8016.43133 [MHz]
  Nuclear repulsion =   45.773912374110651

  Charge       = 0
  Multiplicity = 1
  Electrons    = 28
  Nalpha       = 14
  Nbeta        = 14

  ==> Algorithm <==

  SCF Algorithm Type is DF.
  DIIS enabled.
  MOM disabled.
  Fractional occupation disabled.
  Guess Type is SAD.
  Energy threshold   = 1.00e-08
  Density threshold  = 1.00e-08
  Integral threshold = 1.00e-12

  ==> Primary Basis <==

  Basis Set: DEF2-TZVPPD
    Blend: DEF2-TZVPPD
    Number of shells: 30
    Number of basis functions: 96
    Number of Cartesian functions: 117
    Spherical Harmonics?: true
    Max angular momentum: 4

  Core potential: DEF2-TZVPPD
    Number of shells: 4
    Number of ECP primitives: 14
    Number of ECP core electrons: 28
    Max angular momentum: 3

  ==> DFT Potential <==

   => Composite Functional: MN15-D3BJ <= 

   MN15 Hybrid Meta-GGA Exchange-Correlation Functional

    H. S. Yu, X. He, S. L. Li, and D. G. Truhlar, Chem. Sci. 7, 5032-5051, 2016


    Deriv               =              1
    GGA                 =           TRUE
    Meta                =           TRUE

    Exchange Hybrid     =           TRUE
    MP2 Hybrid          =          FALSE

   => Exchange Functionals <=

    1.0000   XC_HYB_MGGA_X_MN15

   => Exact (HF) Exchange <=

    0.4400               HF 

   => Correlation Functionals <=

    1.0000   XC_MGGA_C_MN15

   => LibXC Density Thresholds  <==

    XC_MGGA_C_MN15:  1.00E-15 
    XC_HYB_MGGA_X_MN15:  1.00E-15 

   => Molecular Quadrature <=

    Radial Scheme          =       TREUTLER
    Pruning Scheme         =           NONE
    Nuclear Scheme         =       TREUTLER

    BS radius alpha        =              1
    Pruning alpha          =              1
    Radial Points          =             75
    Spherical Points       =            302
    Total Points           =          43158
    Total Blocks           =            405
    Max Points             =            255
    Max Functions          =             95
    Weights Tolerance      =       1.00E-15

   => Loading Basis Set <=

    Name: (DEF2-TZVPPD AUX)
    Role: JKFIT
    Keyword: DF_BASIS_SCF
    atoms 1 entry AG         line  4364 file /mnt/storage/home/zw18965/.conda/envs/p4env/share/psi4/basis/def2-universal-jkfit.gbs 
    atoms 2 entry F          line   378 file /mnt/storage/home/zw18965/.conda/envs/p4env/share/psi4/basis/def2-universal-jkfit.gbs 

  ==> Integral Setup <==

  DFHelper Memory: AOs need 0.028 GiB; user supplied 83.569 GiB. Using in-core AOs.

  ==> MemDFJK: Density-Fitted J/K Matrices <==

    J tasked:                   Yes
    K tasked:                   Yes
    wK tasked:                   No
    OpenMP threads:              28
    Memory [MiB]:             85574
    Algorithm:                 Core
    Schwarz Cutoff:           1E-12
    Mask sparsity (%):       0.4557
    Fitting Condition:        1E-10

   => Auxiliary Basis Set <=

  Basis Set: (DEF2-TZVPPD AUX)
    Blend: DEF2-UNIVERSAL-JKFIT
    Number of shells: 74
    Number of basis functions: 332
    Number of Cartesian functions: 477
    Spherical Harmonics?: true
    Max angular momentum: 6

  Cached 100.0% of DFT collocation blocks in 0.250 [GiB].

  Minimum eigenvalue in the overlap matrix is 3.3921717907E-03.
  Reciprocal condition number of the overlap matrix is 7.5617963029E-04.
    Using symmetric orthogonalization.

  ==> Pre-Iterations <==

  SCF Guess: Superposition of Atomic Densities via on-the-fly atomic UHF (no occupation information).

   -------------------------
    Irrep   Nso     Nmo    
   -------------------------
     A1        41      41 
     A2        11      11 
     B1        22      22 
     B2        22      22 
   -------------------------
    Total      96      96
   -------------------------

  ==> Iterations <==

                           Total Energy        Delta E     RMS |[F,P]|

   @DF-RKS iter SAD:  -245.88558371019116   -2.45886e+02   0.00000e+00 
   @DF-RKS iter   1:  -246.31141520181077   -4.25831e-01   1.33126e-02 DIIS
   @DF-RKS iter   2:  -244.09385780382425    2.21756e+00   4.65668e-02 DIIS
   @DF-RKS iter   3:  -246.48324839454850   -2.38939e+00   2.07226e-03 DIIS
   @DF-RKS iter   4:  -246.48621148733457   -2.96309e-03   1.66612e-03 DIIS
   @DF-RKS iter   5:  -246.48790690660456   -1.69542e-03   5.83875e-04 DIIS
   @DF-RKS iter   6:  -246.48823230057781   -3.25394e-04   2.33242e-04 DIIS
   @DF-RKS iter   7:  -246.48829003168319   -5.77311e-05   6.46184e-05 DIIS
   @DF-RKS iter   8:  -246.48830078509263   -1.07534e-05   1.17954e-05 DIIS
   @DF-RKS iter   9:  -246.48830180558227   -1.02049e-06   2.83802e-06 DIIS
   @DF-RKS iter  10:  -246.48830186026811   -5.46858e-08   5.24603e-07 DIIS
   @DF-RKS iter  11:  -246.48830186118985   -9.21744e-10   2.13140e-07 DIIS
   @DF-RKS iter  12:  -246.48830186123794   -4.80895e-11   2.43547e-08 DIIS
   @DF-RKS iter  13:  -246.48830186123888   -9.37916e-13   3.46182e-09 DIIS
  Energy and wave function converged.


  ==> Post-Iterations <==

   Electrons on quadrature grid:
      Ntotal   =   28.0000157021 ; deviation = 1.570e-05 

    Orbital Energies [Eh]
    ---------------------

    Doubly Occupied:                                                      

       1A1   -24.158629     2A1    -3.679636     1B1    -2.331261  
       1B2    -2.331261     3A1    -2.328399     4A1    -1.064255  
       5A1    -0.447474     2B2    -0.425346     2B1    -0.425346  
       1A2    -0.407147     6A1    -0.407147     3B1    -0.338283  
       3B2    -0.338283     7A1    -0.330264  

    Virtual:                                                              

       8A1    -0.093241     4B1     0.032271     4B2     0.032271  
       9A1     0.079873    10A1     0.131273    11A1     0.200196  
       5B2     0.207977     5B1     0.207977     6B2     0.230710  
       6B1     0.230710    12A1     0.279127    13A1     0.389327  
      14A1     0.424425     2A2     0.424425     7B1     0.514289  
       7B2     0.514289    15A1     0.561127    16A1     0.611014  
       3A2     0.611018     8B2     0.734632     8B1     0.734632  
      17A1     0.735282     9B2     0.854595     9B1     0.854595  
      18A1     1.144517    19A1     1.167229    10B2     1.557286  
      10B1     1.557286     4A2     1.571267    20A1     1.571267  
      11B2     1.599880    11B1     1.599880    21A1     1.658301  
      12B2     1.675866    12B1     1.675866    22A1     1.784656  
      23A1     1.966481     5A2     2.022056    24A1     2.022056  
      13B2     2.033280    13B1     2.033280    25A1     2.064478  
       6A2     2.364575    26A1     2.364643    14B2     2.429772  
      14B1     2.429772    27A1     2.777999    15B2     3.388145  
      15B1     3.388145    28A1     3.680878    29A1     4.146801  
      16B2     4.585097    16B1     4.585097    30A1     4.596744  
       7A2     4.596744    17B1     4.659686    17B2     4.659686  
      31A1     4.850526    32A1     5.391754     8A2     5.391758  
      18B1     5.392397    18B2     5.392397     9A2     5.392938  
      33A1     5.392939    19B2     5.394231    19B1     5.394231  
      34A1     5.456239    35A1     6.860505    10A2     6.860809  
      20B1     6.878512    20B2     6.878512    21B2     6.882445  
      21B1     6.882445    36A1     6.990376    37A1     8.375955  
      11A2     8.376507    22B2     8.399816    22B1     8.399816  
      38A1     8.583177    39A1    32.822349    40A1    54.806174  
      41A1   110.544690  

    Final Occupation by Irrep:
             A1    A2    B1    B2 
    DOCC [     7,    1,    3,    3 ]

  @DF-RKS Final Energy:  -246.48830186123888

   => Energetics <=

    Nuclear Repulsion Energy =             45.7739123741106511
    One-Electron Energy =                -492.3431178512739734
    Two-Electron Energy =                 214.0381187288834610
    DFT Exchange-Correlation Energy =     -13.9571997229589790
    Empirical Dispersion Energy =          -0.0000153900000000
    VV10 Nonlocal Energy =                  0.0000000000000000
    Total Energy =                       -246.4883018612388526

Computation Completed


Properties will be evaluated at   0.000000,   0.000000,   0.000000 [a0]

Properties computed using the SCF density matrix

  Nuclear Dipole Moment: [e a0]
     X:     0.0000      Y:     0.0000      Z:   -17.8378

  Electronic Dipole Moment: [e a0]
     X:     0.0000      Y:     0.0000      Z:    20.1353

  Dipole Moment: [e a0]
     X:     0.0000      Y:     0.0000      Z:     2.2974     Total:     2.2974

  Dipole Moment: [D]
     X:     0.0000      Y:     0.0000      Z:     5.8395     Total:     5.8395


*** tstop() called on compute405.bc4.acrc.priv at Tue Nov  2 10:58:58 2021
Module time:
	user time   =      54.39 seconds =       0.91 minutes
	system time =       2.32 seconds =       0.04 minutes
	total time  =          6 seconds =       0.10 minutes
Total time:
	user time   =      54.39 seconds =       0.91 minutes
	system time =       2.32 seconds =       0.04 minutes
	total time  =          6 seconds =       0.10 minutes

*** tstart() called on compute405.bc4.acrc.priv
*** at Tue Nov  2 10:58:58 2021


         ------------------------------------------------------------
                                   SCF GRAD                          
                          Rob Parrish, Justin Turney,                
                       Andy Simmonett, and Alex Sokolov              
         ------------------------------------------------------------

  ==> Geometry <==

    Molecular point group: c2v
    Full point group: C_inf_v

    Geometry (in Angstrom), charge = 0, multiplicity = 1:

       Center              X                  Y                   Z               Mass       
    ------------   -----------------  -----------------  -----------------  -----------------
         AG           0.000000000000     0.000000000000     0.298303619952   106.905091600000
         F            0.000000000000     0.000000000000    -1.678571380048    18.998403162730

  Nuclear repulsion =   45.773912374110651

  ==> Basis Set <==

  Basis Set: DEF2-TZVPPD
    Blend: DEF2-TZVPPD
    Number of shells: 30
    Number of basis functions: 96
    Number of Cartesian functions: 117
    Spherical Harmonics?: true
    Max angular momentum: 4

  Core potential: DEF2-TZVPPD
    Number of shells: 4
    Number of ECP primitives: 14
    Number of ECP core electrons: 28
    Max angular momentum: 3

  ==> DFJKGrad: Density-Fitted SCF Gradients <==

    Gradient:                    1
    J tasked:                  Yes
    K tasked:                  Yes
    wK tasked:                  No
    OpenMP threads:             28
    Integrals threads:          28
    Memory [MiB]:            85830
    Schwarz Cutoff:          1E-12
    Fitting Condition:       1E-10

   => Auxiliary Basis Set <=

  Basis Set: (DEF2-TZVPPD AUX)
    Blend: DEF2-UNIVERSAL-JKFIT
    Number of shells: 74
    Number of basis functions: 332
    Number of Cartesian functions: 477
    Spherical Harmonics?: true
    Max angular momentum: 6

  ==> DFT Potential <==

   => Composite Functional: MN15-D3BJ <= 

   MN15 Hybrid Meta-GGA Exchange-Correlation Functional

    H. S. Yu, X. He, S. L. Li, and D. G. Truhlar, Chem. Sci. 7, 5032-5051, 2016


    Deriv               =              1
    GGA                 =           TRUE
    Meta                =           TRUE

    Exchange Hybrid     =           TRUE
    MP2 Hybrid          =          FALSE

   => Exchange Functionals <=

    1.0000   XC_HYB_MGGA_X_MN15

   => Exact (HF) Exchange <=

    0.4400               HF 

   => Correlation Functionals <=

    1.0000   XC_MGGA_C_MN15

   => LibXC Density Thresholds  <==

    XC_MGGA_C_MN15:  1.00E-15 
    XC_HYB_MGGA_X_MN15:  1.00E-15 

   => Molecular Quadrature <=

    Radial Scheme          =       TREUTLER
    Pruning Scheme         =           NONE
    Nuclear Scheme         =       TREUTLER

    BS radius alpha        =              1
    Pruning alpha          =              1
    Radial Points          =             75
    Spherical Points       =            302
    Total Points           =          43158
    Total Blocks           =            405
    Max Points             =            255
    Max Functions          =             95
    Weights Tolerance      =       1.00E-15


  -Total Gradient:
     Atom            X                  Y                   Z
    ------   -----------------  -----------------  -----------------
       1       -0.000000000000     0.000000000000    -0.113769234326
       2       -0.000000000000     0.000000000000     0.113934538217


*** tstop() called on compute405.bc4.acrc.priv at Tue Nov  2 10:59:04 2021
Module time:
	user time   =      35.96 seconds =       0.60 minutes
	system time =       2.11 seconds =       0.04 minutes
	total time  =          6 seconds =       0.10 minutes
Total time:
	user time   =      91.84 seconds =       1.53 minutes
	system time =       4.51 seconds =       0.08 minutes
	total time  =         12 seconds =       0.20 minutes


  ==> Adding ECP gradient terms (computed numerically) <==

  -ECP Gradient:
     Atom            X                  Y                   Z
    ------   -----------------  -----------------  -----------------
       1        0.000000000000    -0.000000000000     0.114391936578
       2        0.000000000000    -0.000000000000    -0.114391936596


  -Total Gradient:
     Atom            X                  Y                   Z
    ------   -----------------  -----------------  -----------------
       1        0.000000000000    -0.000000000000     0.000622702252
       2        0.000000000000    -0.000000000000    -0.000457398379


			-----------------------------------------
			 OPTKING 2.0: for geometry optimizations 
			  - R.A. King,  Bethel University        
			-----------------------------------------
	At level 1: Red. Int., RFO, no backsteps, dynamic trust

	Internal coordinates to be generated automatically.
	Detected frag 1 with atoms:  1 2
	---Fragment 1 Bond Connectivity---
	 1 : 2
	 2 : 1

	---Fragment 1 Geometry and Gradient---
	 AG          0.0000000000        0.0000000000        0.5637121439
	 F           0.0000000000        0.0000000000       -3.1720401903
	             0.0000000000       -0.0000000000        0.0006227023
	             0.0000000000       -0.0000000000       -0.0004573984

	Previous optimization step data not found.  Starting new optimization.

	---Fragment 1 Intrafragment Coordinates---
	 - Coordinate -           - BOHR/RAD -       - ANG/DEG -
	 R(1,2)           =         3.735752	       1.976875

	Current energy   :      -246.4883018612

	Generating empirical Hessian (Schlegel '84) for each fragment.
	Taking RFO optimization step.
	Going to follow RFO solution 1.
	Using RFO vector 1.
	Norm of target step-size    0.00144
	Projected energy change by RFO approximation:         0.0000002634

	Back-transformation to cartesian coordinates...
	Successfully converged to displaced geometry.

	--- Internal Coordinate Step in ANG or DEG, aJ/ANG or AJ/DEG ---
	 ---------------------------------------------------------------------------
	   Coordinate                Previous        Force       Change         New 
	   ----------                --------       ------       ------       ------
	    1 R(1,2)          =      1.976875    -0.004449    -0.000765     1.976110
	 ---------------------------------------------------------------------------
	Successfully symmetrized geometry.

  ==> Convergence Check <==

  Measures of convergence in internal coordinates in au.
  Criteria marked as inactive (o), active & met (*), and active & unmet ( ).
  --------------------------------------------------------------------------------------------- ~
   Step     Total Energy     Delta E     MAX Force     RMS Force      MAX Disp      RMS Disp    ~
  --------------------------------------------------------------------------------------------- ~
    Convergence Criteria    1.00e-06 *    3.00e-04 *             o    1.20e-03 *             o  ~
  --------------------------------------------------------------------------------------------- ~
      1    -246.48830186   -2.46e+02      5.40e-04      5.40e-04 o    1.44e-03      1.44e-03 o  ~
  ---------------------------------------------------------------------------------------------

	Writing optimization data to binary file.
	Structure for next step:
	Cartesian Geometry (in Angstrom)
	   AG     0.0000000000   0.0000000000   0.2979213665
	    F     0.0000000000   0.0000000000  -1.6781891212
			--------------------------
			 OPTKING Finished Execution 
			--------------------------

    Structure for next step:
    Molecular point group: c2v
    Full point group: C_inf_v

    Geometry (in Angstrom), charge = 0, multiplicity = 1:

    AG           0.000000000000     0.000000000000     0.298188258864
    F            0.000000000000     0.000000000000    -1.677922236667


Scratch directory: /tmp/
gradient() will perform analytic gradient computation.

*** tstart() called on compute405.bc4.acrc.priv
*** at Tue Nov  2 10:59:41 2021

   => Loading Basis Set <=

    Name: DEF2-TZVPPD
    Role: ORBITAL
    Keyword: BASIS
    atoms 1 entry AG         line  2174 (ECP: line  3646) file /mnt/storage/home/zw18965/.conda/envs/p4env/share/psi4/basis/def2-tzvppd.gbs 
    atoms 2 entry F          line   257 file /mnt/storage/home/zw18965/.conda/envs/p4env/share/psi4/basis/def2-tzvppd.gbs 

    !!!  WARNING: ECP capability is in beta. Please check occupations closely.  !!!

   => MN15-D3(BJ): Empirical Dispersion <=

    Grimme's -D3 (BJ-damping) Dispersion Correction
    Grimme S.; Ehrlich S.; Goerigk L. (2011), J. Comput. Chem., 32: 1456
    Parametrisation from:    L. Goerigk, A. Hansen, C. Bauer, S. Ehrlich, A. Najibi, S. Grimme, Phys. Chem. Chem. Phys. 19, 32184-32215, 2017

        s6 =       1.000000
        s8 =       2.097100
        a1 =       0.786200
        a2 =       7.592300


         ---------------------------------------------------------
                                   SCF
               by Justin Turney, Rob Parrish, Andy Simmonett
                          and Daniel G. A. Smith
                              RKS Reference
                       28 Threads, 114440 MiB Core
         ---------------------------------------------------------

  ==> Geometry <==

    Molecular point group: c2v
    Full point group: C_inf_v

    Geometry (in Angstrom), charge = 0, multiplicity = 1:

       Center              X                  Y                   Z               Mass       
    ------------   -----------------  -----------------  -----------------  -----------------
         AG           0.000000000000     0.000000000000     0.298188258864   106.905091600000
         F            0.000000000000     0.000000000000    -1.677922236667    18.998403162730

  Running in c2v symmetry.

  Rotational constants: A = ************  B =      0.26761  C =      0.26761 [cm^-1]
  Rotational constants: A = ************  B =   8022.63521  C =   8022.63521 [MHz]
  Nuclear repulsion =   45.791621080515164

  Charge       = 0
  Multiplicity = 1
  Electrons    = 28
  Nalpha       = 14
  Nbeta        = 14

  ==> Algorithm <==

  SCF Algorithm Type is DF.
  DIIS enabled.
  MOM disabled.
  Fractional occupation disabled.
  Guess Type is READ.
  Energy threshold   = 1.00e-08
  Density threshold  = 1.00e-08
  Integral threshold = 1.00e-12

  ==> Primary Basis <==

  Basis Set: DEF2-TZVPPD
    Blend: DEF2-TZVPPD
    Number of shells: 30
    Number of basis functions: 96
    Number of Cartesian functions: 117
    Spherical Harmonics?: true
    Max angular momentum: 4

  Core potential: DEF2-TZVPPD
    Number of shells: 4
    Number of ECP primitives: 14
    Number of ECP core electrons: 28
    Max angular momentum: 3

  ==> DFT Potential <==

   => Composite Functional: MN15-D3BJ <= 

   MN15 Hybrid Meta-GGA Exchange-Correlation Functional

    H. S. Yu, X. He, S. L. Li, and D. G. Truhlar, Chem. Sci. 7, 5032-5051, 2016


    Deriv               =              1
    GGA                 =           TRUE
    Meta                =           TRUE

    Exchange Hybrid     =           TRUE
    MP2 Hybrid          =          FALSE

   => Exchange Functionals <=

    1.0000   XC_HYB_MGGA_X_MN15

   => Exact (HF) Exchange <=

    0.4400               HF 

   => Correlation Functionals <=

    1.0000   XC_MGGA_C_MN15

   => LibXC Density Thresholds  <==

    XC_MGGA_C_MN15:  1.00E-15 
    XC_HYB_MGGA_X_MN15:  1.00E-15 

   => Molecular Quadrature <=

    Radial Scheme          =       TREUTLER
    Pruning Scheme         =           NONE
    Nuclear Scheme         =       TREUTLER

    BS radius alpha        =              1
    Pruning alpha          =              1
    Radial Points          =             75
    Spherical Points       =            302
    Total Points           =          43161
    Total Blocks           =            405
    Max Points             =            255
    Max Functions          =             95
    Weights Tolerance      =       1.00E-15

   => Loading Basis Set <=

    Name: (DEF2-TZVPPD AUX)
    Role: JKFIT
    Keyword: DF_BASIS_SCF
    atoms 1 entry AG         line  4364 file /mnt/storage/home/zw18965/.conda/envs/p4env/share/psi4/basis/def2-universal-jkfit.gbs 
    atoms 2 entry F          line   378 file /mnt/storage/home/zw18965/.conda/envs/p4env/share/psi4/basis/def2-universal-jkfit.gbs 

   => Loading Basis Set <=

    Name: DEF2-TZVPPD
    Role: ORBITAL
    Keyword: BASIS
    atoms 1 entry AG         line  2174 (ECP: line  3646) file /mnt/storage/home/zw18965/.conda/envs/p4env/share/psi4/basis/def2-tzvppd.gbs 
    atoms 2 entry F          line   257 file /mnt/storage/home/zw18965/.conda/envs/p4env/share/psi4/basis/def2-tzvppd.gbs 

    !!!  WARNING: ECP capability is in beta. Please check occupations closely.  !!!

  Reading orbitals from file /tmp/Ag01N0_F.default.15395.180.npy, no projection.

  ==> Integral Setup <==

  DFHelper Memory: AOs need 0.028 GiB; user supplied 83.569 GiB. Using in-core AOs.

  ==> MemDFJK: Density-Fitted J/K Matrices <==

    J tasked:                   Yes
    K tasked:                   Yes
    wK tasked:                   No
    OpenMP threads:              28
    Memory [MiB]:             85574
    Algorithm:                 Core
    Schwarz Cutoff:           1E-12
    Mask sparsity (%):       0.4557
    Fitting Condition:        1E-10

   => Auxiliary Basis Set <=

  Basis Set: (DEF2-TZVPPD AUX)
    Blend: DEF2-UNIVERSAL-JKFIT
    Number of shells: 74
    Number of basis functions: 332
    Number of Cartesian functions: 477
    Spherical Harmonics?: true
    Max angular momentum: 6

  Cached 100.0% of DFT collocation blocks in 0.250 [GiB].

  Minimum eigenvalue in the overlap matrix is 3.3861632598E-03.
  Reciprocal condition number of the overlap matrix is 7.5474042395E-04.
    Using symmetric orthogonalization.

  ==> Pre-Iterations <==

  SCF Guess: Orbitals guess was supplied from a previous computation.

   -------------------------------------------------------
    Irrep   Nso     Nmo     Nalpha   Nbeta   Ndocc  Nsocc
   -------------------------------------------------------
     A1        41      41       7       7       7       0
     A2        11      11       1       1       1       0
     B1        22      22       3       3       3       0
     B2        22      22       3       3       3       0
   -------------------------------------------------------
    Total      96      96      14      14      14       0
   -------------------------------------------------------

  ==> Iterations <==

                           Total Energy        Delta E     RMS |[F,P]|

   @DF-RKS iter   0:  -246.48828788784570   -2.46488e+02   2.72326e-05 
   @DF-RKS iter   1:  -246.48830253298831   -1.46451e-05   3.26160e-06 DIIS
   @DF-RKS iter   2:  -246.48830252247831    1.05100e-08   5.28453e-06 DIIS
   @DF-RKS iter   3:  -246.48830254418598   -2.17077e-08   6.03233e-07 DIIS
   @DF-RKS iter   4:  -246.48830254463911   -4.53127e-10   2.75700e-07 DIIS
   @DF-RKS iter   5:  -246.48830254480532   -1.66210e-10   1.58453e-07 DIIS
   @DF-RKS iter   6:  -246.48830254486526   -5.99414e-11   2.40679e-08 DIIS
   @DF-RKS iter   7:  -246.48830254486728   -2.01794e-12   9.70773e-09 DIIS
  Energy and wave function converged.


  ==> Post-Iterations <==

   Electrons on quadrature grid:
      Ntotal   =   28.0000155738 ; deviation = 1.557e-05 

    Orbital Energies [Eh]
    ---------------------

    Doubly Occupied:                                                      

       1A1   -24.158702     2A1    -3.679614     1B2    -2.331233  
       1B1    -2.331233     3A1    -2.328384     4A1    -1.064379  
       5A1    -0.447575     2B2    -0.425398     2B1    -0.425398  
       1A2    -0.407113     6A1    -0.407113     3B2    -0.338304  
       3B1    -0.338304     7A1    -0.330237  

    Virtual:                                                              

       8A1    -0.093190     4B2     0.032290     4B1     0.032290  
       9A1     0.079900    10A1     0.131286    11A1     0.200184  
       5B1     0.207970     5B2     0.207970     6B2     0.230730  
       6B1     0.230730    12A1     0.279182    13A1     0.389403  
      14A1     0.424434     2A2     0.424434     7B1     0.514358  
       7B2     0.514358    15A1     0.561087    16A1     0.611001  
       3A2     0.611005     8B2     0.734604     8B1     0.734604  
      17A1     0.735304     9B2     0.854641     9B1     0.854641  
      18A1     1.144484    19A1     1.167433    10B1     1.557327  
      10B2     1.557327     4A2     1.571328    20A1     1.571328  
      11B2     1.599895    11B1     1.599895    21A1     1.658305  
      12B2     1.675920    12B1     1.675920    22A1     1.784436  
      23A1     1.966653     5A2     2.022081    24A1     2.022081  
      13B2     2.033155    13B1     2.033155    25A1     2.064411  
       6A2     2.364487    26A1     2.364559    14B1     2.429931  
      14B2     2.429931    27A1     2.778929    15B1     3.388108  
      15B2     3.388108    28A1     3.681071    29A1     4.146680  
      16B1     4.585126    16B2     4.585126    30A1     4.596785  
       7A2     4.596786    17B1     4.659809    17B2     4.659809  
      31A1     4.850976    32A1     5.391777     8A2     5.391781  
      18B2     5.392429    18B1     5.392429     9A2     5.392976  
      33A1     5.392977    19B1     5.394261    19B2     5.394261  
      34A1     5.456704    35A1     6.860400    10A2     6.860708  
      20B2     6.878413    20B1     6.878413    21B2     6.882514  
      21B1     6.882514    36A1     6.990704    37A1     8.375867  
      11A2     8.376418    22B1     8.399850    22B2     8.399850  
      38A1     8.583833    39A1    32.822444    40A1    54.806280  
      41A1   110.544731  

    Final Occupation by Irrep:
             A1    A2    B1    B2 
    DOCC [     7,    1,    3,    3 ]

  @DF-RKS Final Energy:  -246.48830254486728

   => Energetics <=

    Nuclear Repulsion Energy =             45.7916210805151636
    One-Electron Energy =                -492.3779609189539315
    Two-Electron Energy =                 214.0553196996972645
    DFT Exchange-Correlation Energy =     -13.9572670161257690
    Empirical Dispersion Energy =          -0.0000153900000000
    VV10 Nonlocal Energy =                  0.0000000000000000
    Total Energy =                       -246.4883025448672811

Computation Completed


Properties will be evaluated at   0.000000,   0.000000,   0.000000 [a0]

Properties computed using the SCF density matrix

  Nuclear Dipole Moment: [e a0]
     X:     0.0000      Y:     0.0000      Z:   -17.8309

  Electronic Dipole Moment: [e a0]
     X:     0.0000      Y:     0.0000      Z:    20.1270

  Dipole Moment: [e a0]
     X:     0.0000      Y:     0.0000      Z:     2.2960     Total:     2.2960

  Dipole Moment: [D]
     X:     0.0000      Y:     0.0000      Z:     5.8359     Total:     5.8359


*** tstop() called on compute405.bc4.acrc.priv at Tue Nov  2 10:59:44 2021
Module time:
	user time   =      39.02 seconds =       0.65 minutes
	system time =       1.54 seconds =       0.03 minutes
	total time  =          3 seconds =       0.05 minutes
Total time:
	user time   =     372.50 seconds =       6.21 minutes
	system time =      10.61 seconds =       0.18 minutes
	total time  =         52 seconds =       0.87 minutes

*** tstart() called on compute405.bc4.acrc.priv
*** at Tue Nov  2 10:59:44 2021


         ------------------------------------------------------------
                                   SCF GRAD                          
                          Rob Parrish, Justin Turney,                
                       Andy Simmonett, and Alex Sokolov              
         ------------------------------------------------------------

  ==> Geometry <==

    Molecular point group: c2v
    Full point group: C_inf_v

    Geometry (in Angstrom), charge = 0, multiplicity = 1:

       Center              X                  Y                   Z               Mass       
    ------------   -----------------  -----------------  -----------------  -----------------
         AG           0.000000000000     0.000000000000     0.298188258864   106.905091600000
         F            0.000000000000     0.000000000000    -1.677922236667    18.998403162730

  Nuclear repulsion =   45.791621080515164

  ==> Basis Set <==

  Basis Set: DEF2-TZVPPD
    Blend: DEF2-TZVPPD
    Number of shells: 30
    Number of basis functions: 96
    Number of Cartesian functions: 117
    Spherical Harmonics?: true
    Max angular momentum: 4

  Core potential: DEF2-TZVPPD
    Number of shells: 4
    Number of ECP primitives: 14
    Number of ECP core electrons: 28
    Max angular momentum: 3

  ==> DFJKGrad: Density-Fitted SCF Gradients <==

    Gradient:                    1
    J tasked:                  Yes
    K tasked:                  Yes
    wK tasked:                  No
    OpenMP threads:             28
    Integrals threads:          28
    Memory [MiB]:            85830
    Schwarz Cutoff:          1E-12
    Fitting Condition:       1E-10

   => Auxiliary Basis Set <=

  Basis Set: (DEF2-TZVPPD AUX)
    Blend: DEF2-UNIVERSAL-JKFIT
    Number of shells: 74
    Number of basis functions: 332
    Number of Cartesian functions: 477
    Spherical Harmonics?: true
    Max angular momentum: 6

  ==> DFT Potential <==

   => Composite Functional: MN15-D3BJ <= 

   MN15 Hybrid Meta-GGA Exchange-Correlation Functional

    H. S. Yu, X. He, S. L. Li, and D. G. Truhlar, Chem. Sci. 7, 5032-5051, 2016


    Deriv               =              1
    GGA                 =           TRUE
    Meta                =           TRUE

    Exchange Hybrid     =           TRUE
    MP2 Hybrid          =          FALSE

   => Exchange Functionals <=

    1.0000   XC_HYB_MGGA_X_MN15

   => Exact (HF) Exchange <=

    0.4400               HF 

   => Correlation Functionals <=

    1.0000   XC_MGGA_C_MN15

   => LibXC Density Thresholds  <==

    XC_MGGA_C_MN15:  1.00E-15 
    XC_HYB_MGGA_X_MN15:  1.00E-15 

   => Molecular Quadrature <=

    Radial Scheme          =       TREUTLER
    Pruning Scheme         =           NONE
    Nuclear Scheme         =       TREUTLER

    BS radius alpha        =              1
    Pruning alpha          =              1
    Radial Points          =             75
    Spherical Points       =            302
    Total Points           =          43161
    Total Blocks           =            405
    Max Points             =            255
    Max Functions          =             95
    Weights Tolerance      =       1.00E-15


  -Total Gradient:
     Atom            X                  Y                   Z
    ------   -----------------  -----------------  -----------------
       1       -0.000000000000     0.000000000000    -0.114215014681
       2       -0.000000000000     0.000000000000     0.114380038213


*** tstop() called on compute405.bc4.acrc.priv at Tue Nov  2 10:59:52 2021
Module time:
	user time   =      35.94 seconds =       0.60 minutes
	system time =       3.35 seconds =       0.06 minutes
	total time  =          8 seconds =       0.13 minutes
Total time:
	user time   =     412.14 seconds =       6.87 minutes
	system time =      14.15 seconds =       0.24 minutes
	total time  =         60 seconds =       1.00 minutes


  ==> Adding ECP gradient terms (computed numerically) <==

  -ECP Gradient:
     Atom            X                  Y                   Z
    ------   -----------------  -----------------  -----------------
       1       -0.000000000000    -0.000000000000     0.114609594040
       2       -0.000000000000    -0.000000000000    -0.114609594037


  -Total Gradient:
     Atom            X                  Y                   Z
    ------   -----------------  -----------------  -----------------
       1       -0.000000000000    -0.000000000000     0.000394579359
       2       -0.000000000000    -0.000000000000    -0.000229555825


			-----------------------------------------
			 OPTKING 2.0: for geometry optimizations 
			  - R.A. King,  Bethel University        
			-----------------------------------------
	At level 1: Red. Int., RFO, no backsteps, dynamic trust

	Previous internal coordinate definitions found.
	---Fragment 1 Geometry and Gradient---
	 AG          0.0000000000        0.0000000000        0.5634941431
	 F           0.0000000000        0.0000000000       -3.1708134871
	            -0.0000000000       -0.0000000000        0.0003945794
	            -0.0000000000       -0.0000000000       -0.0002295558

	---Fragment 1 Intrafragment Coordinates---
	 - Coordinate -           - BOHR/RAD -       - ANG/DEG -
	 R(1,2)           =         3.734308	       1.976110

	Current energy   :      -246.4883025449

	Energy change for the previous step:
		Projected    :         0.0000002634
		Actual       :        -0.0000006836

	Performing BFGS update.
	Previous computed or guess Hessian on step 1.
	Steps to be used in Hessian update: 1
	Taking RFO optimization step.
	Going to follow RFO solution 1.
	Using RFO vector 1.
	Norm of target step-size    0.00198
	Projected energy change by RFO approximation:         0.0000013382

	Back-transformation to cartesian coordinates...
	Successfully converged to displaced geometry.

	--- Internal Coordinate Step in ANG or DEG, aJ/ANG or AJ/DEG ---
	 ---------------------------------------------------------------------------
	   Coordinate                Previous        Force       Change         New 
	   ----------                --------       ------       ------       ------
	    1 R(1,2)          =      1.976110    -0.002571    -0.001046     1.975064
	 ---------------------------------------------------------------------------
	Successfully symmetrized geometry.

  ==> Convergence Check <==

  Measures of convergence in internal coordinates in au.
  Criteria marked as inactive (o), active & met (*), and active & unmet ( ).
  ---------------------------------------------------------------------------------------------
   Step     Total Energy     Delta E     MAX Force     RMS Force      MAX Disp      RMS Disp   
  ---------------------------------------------------------------------------------------------
    Convergence Criteria    1.00e-06 *    3.00e-04 *             o    1.20e-03 *             o
  ---------------------------------------------------------------------------------------------
      2    -246.48830254   -6.84e-07 *    3.12e-04      3.12e-04 o    1.98e-03      1.98e-03 o  ~
  ---------------------------------------------------------------------------------------------

	Writing optimization data to binary file.
	Structure for next step:
	Cartesian Geometry (in Angstrom)
	   AG     0.0000000000   0.0000000000   0.2976650248
	    F     0.0000000000   0.0000000000  -1.6773989971
			--------------------------
			 OPTKING Finished Execution 
			--------------------------

    Structure for next step:
    Molecular point group: c2v
    Full point group: C_inf_v

    Geometry (in Angstrom), charge = 0, multiplicity = 1:

    AG           0.000000000000     0.000000000000     0.298030350775
    F            0.000000000000     0.000000000000    -1.677033678898


Scratch directory: /tmp/
gradient() will perform analytic gradient computation.

*** tstart() called on compute405.bc4.acrc.priv
*** at Tue Nov  2 11:00:30 2021

   => Loading Basis Set <=

    Name: DEF2-TZVPPD
    Role: ORBITAL
    Keyword: BASIS
    atoms 1 entry AG         line  2174 (ECP: line  3646) file /mnt/storage/home/zw18965/.conda/envs/p4env/share/psi4/basis/def2-tzvppd.gbs 
    atoms 2 entry F          line   257 file /mnt/storage/home/zw18965/.conda/envs/p4env/share/psi4/basis/def2-tzvppd.gbs 

    !!!  WARNING: ECP capability is in beta. Please check occupations closely.  !!!

   => MN15-D3(BJ): Empirical Dispersion <=

    Grimme's -D3 (BJ-damping) Dispersion Correction
    Grimme S.; Ehrlich S.; Goerigk L. (2011), J. Comput. Chem., 32: 1456
    Parametrisation from:    L. Goerigk, A. Hansen, C. Bauer, S. Ehrlich, A. Najibi, S. Grimme, Phys. Chem. Chem. Phys. 19, 32184-32215, 2017

        s6 =       1.000000
        s8 =       2.097100
        a1 =       0.786200
        a2 =       7.592300


         ---------------------------------------------------------
                                   SCF
               by Justin Turney, Rob Parrish, Andy Simmonett
                          and Daniel G. A. Smith
                              RKS Reference
                       28 Threads, 114440 MiB Core
         ---------------------------------------------------------

  ==> Geometry <==

    Molecular point group: c2v
    Full point group: C_inf_v

    Geometry (in Angstrom), charge = 0, multiplicity = 1:

       Center              X                  Y                   Z               Mass       
    ------------   -----------------  -----------------  -----------------  -----------------
         AG           0.000000000000     0.000000000000     0.298030350775   106.905091600000
         F            0.000000000000     0.000000000000    -1.677033678898    18.998403162730

  Running in c2v symmetry.

  Rotational constants: A = ************  B =      0.26789  C =      0.26789 [cm^-1]
  Rotational constants: A = ************  B =   8031.13887  C =   8031.13887 [MHz]
  Nuclear repulsion =   45.815883265079641

  Charge       = 0
  Multiplicity = 1
  Electrons    = 28
  Nalpha       = 14
  Nbeta        = 14

  ==> Algorithm <==

  SCF Algorithm Type is DF.
  DIIS enabled.
  MOM disabled.
  Fractional occupation disabled.
  Guess Type is READ.
  Energy threshold   = 1.00e-08
  Density threshold  = 1.00e-08
  Integral threshold = 1.00e-12

  ==> Primary Basis <==

  Basis Set: DEF2-TZVPPD
    Blend: DEF2-TZVPPD
    Number of shells: 30
    Number of basis functions: 96
    Number of Cartesian functions: 117
    Spherical Harmonics?: true
    Max angular momentum: 4

  Core potential: DEF2-TZVPPD
    Number of shells: 4
    Number of ECP primitives: 14
    Number of ECP core electrons: 28
    Max angular momentum: 3

  ==> DFT Potential <==

   => Composite Functional: MN15-D3BJ <= 

   MN15 Hybrid Meta-GGA Exchange-Correlation Functional

    H. S. Yu, X. He, S. L. Li, and D. G. Truhlar, Chem. Sci. 7, 5032-5051, 2016


    Deriv               =              1
    GGA                 =           TRUE
    Meta                =           TRUE

    Exchange Hybrid     =           TRUE
    MP2 Hybrid          =          FALSE

   => Exchange Functionals <=

    1.0000   XC_HYB_MGGA_X_MN15

   => Exact (HF) Exchange <=

    0.4400               HF 

   => Correlation Functionals <=

    1.0000   XC_MGGA_C_MN15

   => LibXC Density Thresholds  <==

    XC_MGGA_C_MN15:  1.00E-15 
    XC_HYB_MGGA_X_MN15:  1.00E-15 

   => Molecular Quadrature <=

    Radial Scheme          =       TREUTLER
    Pruning Scheme         =           NONE
    Nuclear Scheme         =       TREUTLER

    BS radius alpha        =              1
    Pruning alpha          =              1
    Radial Points          =             75
    Spherical Points       =            302
    Total Points           =          43162
    Total Blocks           =            405
    Max Points             =            255
    Max Functions          =             95
    Weights Tolerance      =       1.00E-15

   => Loading Basis Set <=

    Name: (DEF2-TZVPPD AUX)
    Role: JKFIT
    Keyword: DF_BASIS_SCF
    atoms 1 entry AG         line  4364 file /mnt/storage/home/zw18965/.conda/envs/p4env/share/psi4/basis/def2-universal-jkfit.gbs 
    atoms 2 entry F          line   378 file /mnt/storage/home/zw18965/.conda/envs/p4env/share/psi4/basis/def2-universal-jkfit.gbs 

   => Loading Basis Set <=

    Name: DEF2-TZVPPD
    Role: ORBITAL
    Keyword: BASIS
    atoms 1 entry AG         line  2174 (ECP: line  3646) file /mnt/storage/home/zw18965/.conda/envs/p4env/share/psi4/basis/def2-tzvppd.gbs 
    atoms 2 entry F          line   257 file /mnt/storage/home/zw18965/.conda/envs/p4env/share/psi4/basis/def2-tzvppd.gbs 

    !!!  WARNING: ECP capability is in beta. Please check occupations closely.  !!!

  Reading orbitals from file /tmp/Ag01N0_F.default.15395.180.npy, no projection.

  ==> Integral Setup <==

  DFHelper Memory: AOs need 0.028 GiB; user supplied 83.569 GiB. Using in-core AOs.

  ==> MemDFJK: Density-Fitted J/K Matrices <==

    J tasked:                   Yes
    K tasked:                   Yes
    wK tasked:                   No
    OpenMP threads:              28
    Memory [MiB]:             85574
    Algorithm:                 Core
    Schwarz Cutoff:           1E-12
    Mask sparsity (%):       0.4557
    Fitting Condition:        1E-10

   => Auxiliary Basis Set <=

  Basis Set: (DEF2-TZVPPD AUX)
    Blend: DEF2-UNIVERSAL-JKFIT
    Number of shells: 74
    Number of basis functions: 332
    Number of Cartesian functions: 477
    Spherical Harmonics?: true
    Max angular momentum: 6

  Cached 100.0% of DFT collocation blocks in 0.250 [GiB].

  Minimum eigenvalue in the overlap matrix is 3.3779551268E-03.
  Reciprocal condition number of the overlap matrix is 7.5277467974E-04.
    Using symmetric orthogonalization.

  ==> Pre-Iterations <==

  SCF Guess: Orbitals guess was supplied from a previous computation.

   -------------------------------------------------------
    Irrep   Nso     Nmo     Nalpha   Nbeta   Ndocc  Nsocc
   -------------------------------------------------------
     A1        41      41       7       7       7       0
     A2        11      11       1       1       1       0
     B1        22      22       3       3       3       0
     B2        22      22       3       3       3       0
   -------------------------------------------------------
    Total      96      96      14      14      14       0
   -------------------------------------------------------

  ==> Iterations <==

                           Total Energy        Delta E     RMS |[F,P]|

   @DF-RKS iter   0:  -246.48828307045795   -2.46488e+02   3.73466e-05 
   @DF-RKS iter   1:  -246.48830292512980   -1.98547e-05   4.47897e-06 DIIS
   @DF-RKS iter   2:  -246.48830290525873    1.98711e-08   7.26133e-06 DIIS
   @DF-RKS iter   3:  -246.48830294624457   -4.09858e-08   8.26007e-07 DIIS
   @DF-RKS iter   4:  -246.48830294709512   -8.50548e-10   3.78268e-07 DIIS
   @DF-RKS iter   5:  -246.48830294740822   -3.13094e-10   2.17494e-07 DIIS
   @DF-RKS iter   6:  -246.48830294752142   -1.13204e-10   3.30895e-08 DIIS
   @DF-RKS iter   7:  -246.48830294752503   -3.60956e-12   1.33708e-08 DIIS
   @DF-RKS iter   8:  -246.48830294752545   -4.26326e-13   3.06787e-09 DIIS
  Energy and wave function converged.


  ==> Post-Iterations <==

   Electrons on quadrature grid:
      Ntotal   =   28.0000153995 ; deviation = 1.540e-05 

    Orbital Energies [Eh]
    ---------------------

    Doubly Occupied:                                                      

       1A1   -24.158802     2A1    -3.679583     1B1    -2.331195  
       1B2    -2.331195     3A1    -2.328364     4A1    -1.064550  
       5A1    -0.447714     2B2    -0.425470     2B1    -0.425470  
       1A2    -0.407068     6A1    -0.407067     3B2    -0.338332  
       3B1    -0.338332     7A1    -0.330199  

    Virtual:                                                              

       8A1    -0.093119     4B2     0.032317     4B1     0.032317  
       9A1     0.079938    10A1     0.131305    11A1     0.200168  
       5B1     0.207960     5B2     0.207960     6B1     0.230758  
       6B2     0.230758    12A1     0.279257    13A1     0.389508  
      14A1     0.424446     2A2     0.424447     7B1     0.514451  
       7B2     0.514451    15A1     0.561034    16A1     0.610984  
       3A2     0.610988     8B1     0.734566     8B2     0.734566  
      17A1     0.735333     9B1     0.854704     9B2     0.854704  
      18A1     1.144439    19A1     1.167712    10B2     1.557384  
      10B1     1.557384     4A2     1.571411    20A1     1.571411  
      11B1     1.599915    11B2     1.599915    21A1     1.658311  
      12B1     1.675992    12B2     1.675992    22A1     1.784132  
      23A1     1.966890     5A2     2.022115    24A1     2.022115  
      13B2     2.032985    13B1     2.032985    25A1     2.064321  
       6A2     2.364368    26A1     2.364443    14B2     2.430150  
      14B1     2.430150    27A1     2.780201    15B1     3.388058  
      15B2     3.388058    28A1     3.681337    29A1     4.146515  
      16B2     4.585165    16B1     4.585165    30A1     4.596842  
       7A2     4.596842    17B2     4.659977    17B1     4.659977  
      31A1     4.851592    32A1     5.391809     8A2     5.391813  
      18B2     5.392473    18B1     5.392473     9A2     5.393027  
      33A1     5.393028    19B1     5.394301    19B2     5.394301  
      34A1     5.457344    35A1     6.860258    10A2     6.860568  
      20B1     6.878277    20B2     6.878277    21B1     6.882610  
      21B2     6.882610    36A1     6.991154    37A1     8.375746  
      11A2     8.376296    22B2     8.399899    22B1     8.399899  
      38A1     8.584733    39A1    32.822575    40A1    54.806427  
      41A1   110.544788  

    Final Occupation by Irrep:
             A1    A2    B1    B2 
    DOCC [     7,    1,    3,    3 ]

  @DF-RKS Final Energy:  -246.48830294752545

   => Energetics <=

    Nuclear Repulsion Energy =             45.8158832650796413
    One-Electron Energy =                -492.4256947227028149
    Two-Electron Energy =                 214.0788833914973566
    DFT Exchange-Correlation Energy =     -13.9573594913996484
    Empirical Dispersion Energy =          -0.0000153900000000
    VV10 Nonlocal Energy =                  0.0000000000000000
    Total Energy =                       -246.4883029475254261

Computation Completed


Properties will be evaluated at   0.000000,   0.000000,   0.000000 [a0]

Properties computed using the SCF density matrix

  Nuclear Dipole Moment: [e a0]
     X:     0.0000      Y:     0.0000      Z:   -17.8215

  Electronic Dipole Moment: [e a0]
     X:     0.0000      Y:     0.0000      Z:    20.1156

  Dipole Moment: [e a0]
     X:     0.0000      Y:     0.0000      Z:     2.2941     Total:     2.2941

  Dipole Moment: [D]
     X:     0.0000      Y:     0.0000      Z:     5.8311     Total:     5.8311


*** tstop() called on compute405.bc4.acrc.priv at Tue Nov  2 11:00:33 2021
Module time:
	user time   =      38.55 seconds =       0.64 minutes
	system time =       1.36 seconds =       0.02 minutes
	total time  =          3 seconds =       0.05 minutes
Total time:
	user time   =     695.76 seconds =      11.60 minutes
	system time =      20.35 seconds =       0.34 minutes
	total time  =        101 seconds =       1.68 minutes

*** tstart() called on compute405.bc4.acrc.priv
*** at Tue Nov  2 11:00:33 2021


         ------------------------------------------------------------
                                   SCF GRAD                          
                          Rob Parrish, Justin Turney,                
                       Andy Simmonett, and Alex Sokolov              
         ------------------------------------------------------------

  ==> Geometry <==

    Molecular point group: c2v
    Full point group: C_inf_v

    Geometry (in Angstrom), charge = 0, multiplicity = 1:

       Center              X                  Y                   Z               Mass       
    ------------   -----------------  -----------------  -----------------  -----------------
         AG           0.000000000000     0.000000000000     0.298030350775   106.905091600000
         F            0.000000000000     0.000000000000    -1.677033678898    18.998403162730

  Nuclear repulsion =   45.815883265079641

  ==> Basis Set <==

  Basis Set: DEF2-TZVPPD
    Blend: DEF2-TZVPPD
    Number of shells: 30
    Number of basis functions: 96
    Number of Cartesian functions: 117
    Spherical Harmonics?: true
    Max angular momentum: 4

  Core potential: DEF2-TZVPPD
    Number of shells: 4
    Number of ECP primitives: 14
    Number of ECP core electrons: 28
    Max angular momentum: 3

  ==> DFJKGrad: Density-Fitted SCF Gradients <==

    Gradient:                    1
    J tasked:                  Yes
    K tasked:                  Yes
    wK tasked:                  No
    OpenMP threads:             28
    Integrals threads:          28
    Memory [MiB]:            85830
    Schwarz Cutoff:          1E-12
    Fitting Condition:       1E-10

   => Auxiliary Basis Set <=

  Basis Set: (DEF2-TZVPPD AUX)
    Blend: DEF2-UNIVERSAL-JKFIT
    Number of shells: 74
    Number of basis functions: 332
    Number of Cartesian functions: 477
    Spherical Harmonics?: true
    Max angular momentum: 6

  ==> DFT Potential <==

   => Composite Functional: MN15-D3BJ <= 

   MN15 Hybrid Meta-GGA Exchange-Correlation Functional

    H. S. Yu, X. He, S. L. Li, and D. G. Truhlar, Chem. Sci. 7, 5032-5051, 2016


    Deriv               =              1
    GGA                 =           TRUE
    Meta                =           TRUE

    Exchange Hybrid     =           TRUE
    MP2 Hybrid          =          FALSE

   => Exchange Functionals <=

    1.0000   XC_HYB_MGGA_X_MN15

   => Exact (HF) Exchange <=

    0.4400               HF 

   => Correlation Functionals <=

    1.0000   XC_MGGA_C_MN15

   => LibXC Density Thresholds  <==

    XC_MGGA_C_MN15:  1.00E-15 
    XC_HYB_MGGA_X_MN15:  1.00E-15 

   => Molecular Quadrature <=

    Radial Scheme          =       TREUTLER
    Pruning Scheme         =           NONE
    Nuclear Scheme         =       TREUTLER

    BS radius alpha        =              1
    Pruning alpha          =              1
    Radial Points          =             75
    Spherical Points       =            302
    Total Points           =          43162
    Total Blocks           =            405
    Max Points             =            255
    Max Functions          =             95
    Weights Tolerance      =       1.00E-15


  -Total Gradient:
     Atom            X                  Y                   Z
    ------   -----------------  -----------------  -----------------
       1       -0.000000000000     0.000000000000    -0.114827372802
       2       -0.000000000000     0.000000000000     0.114992021912


*** tstop() called on compute405.bc4.acrc.priv at Tue Nov  2 11:00:39 2021
Module time:
	user time   =      34.82 seconds =       0.58 minutes
	system time =       1.51 seconds =       0.03 minutes
	total time  =          6 seconds =       0.10 minutes
Total time:
	user time   =     734.06 seconds =      12.23 minutes
	system time =      22.02 seconds =       0.37 minutes
	total time  =        107 seconds =       1.78 minutes


  ==> Adding ECP gradient terms (computed numerically) <==

  -ECP Gradient:
     Atom            X                  Y                   Z
    ------   -----------------  -----------------  -----------------
       1        0.000000000000    -0.000000000000     0.114908291072
       2        0.000000000000    -0.000000000000    -0.114908291063


  -Total Gradient:
     Atom            X                  Y                   Z
    ------   -----------------  -----------------  -----------------
       1        0.000000000000    -0.000000000000     0.000080918270
       2        0.000000000000    -0.000000000000     0.000083730849


			-----------------------------------------
			 OPTKING 2.0: for geometry optimizations 
			  - R.A. King,  Bethel University        
			-----------------------------------------
	At level 1: Red. Int., RFO, no backsteps, dynamic trust

	Previous internal coordinate definitions found.
	---Fragment 1 Geometry and Gradient---
	 AG          0.0000000000        0.0000000000        0.5631957400
	 F           0.0000000000        0.0000000000       -3.1691343563
	             0.0000000000       -0.0000000000        0.0000809183
	             0.0000000000       -0.0000000000        0.0000837308

	---Fragment 1 Intrafragment Coordinates---
	 - Coordinate -           - BOHR/RAD -       - ANG/DEG -
	 R(1,2)           =         3.732330	       1.975064

	Current energy   :      -246.4883029475

	Energy change for the previous step:
		Projected    :         0.0000013382
		Actual       :        -0.0000004027

	Performing BFGS update.
	Previous computed or guess Hessian on step 1.
	Steps to be used in Hessian update: 2 1
	Taking RFO optimization step.
	Going to follow RFO solution 1.
	Using RFO vector 1.
	Norm of target step-size    0.00001
	Projected energy change by RFO approximation:         0.0000000000

	Back-transformation to cartesian coordinates...
	Successfully converged to displaced geometry.

	--- Internal Coordinate Step in ANG or DEG, aJ/ANG or AJ/DEG ---
	 ---------------------------------------------------------------------------
	   Coordinate                Previous        Force       Change         New 
	   ----------                --------       ------       ------       ------
	    1 R(1,2)          =      1.975064     0.000012     0.000005     1.975069
	 ---------------------------------------------------------------------------
	Successfully symmetrized geometry.

  ==> Convergence Check <==

  Measures of convergence in internal coordinates in au.
  Criteria marked as inactive (o), active & met (*), and active & unmet ( ).
  ---------------------------------------------------------------------------------------------
   Step     Total Energy     Delta E     MAX Force     RMS Force      MAX Disp      RMS Disp   
  ---------------------------------------------------------------------------------------------
    Convergence Criteria    1.00e-06 *    3.00e-04 *             o    1.20e-03 *             o
  ---------------------------------------------------------------------------------------------
      3    -246.48830295   -4.03e-07 *    1.41e-06 *    1.41e-06 o    8.89e-06 *    8.89e-06 o  ~
  ---------------------------------------------------------------------------------------------


  **** Optimization is complete! (in 3 steps) ****

  ==> Optimization Summary <==

  Measures of convergence in internal coordinates in au.
  --------------------------------------------------------------------------------------------------------------- ~
   Step         Total Energy             Delta E       MAX Force       RMS Force        MAX Disp        RMS Disp  ~
  --------------------------------------------------------------------------------------------------------------- ~
      1    -246.488301861239   -246.488301861239      0.00054005      0.00054005      0.00144470      0.00144470  ~
      2    -246.488302544867     -0.000000683628      0.00031207      0.00031207      0.00197753      0.00197753  ~
      3    -246.488302947525     -0.000000402658      0.00000141      0.00000141      0.00000889      0.00000889  ~
  --------------------------------------------------------------------------------------------------------------- ~

	Writing optimization data to binary file.
	Final energy is   -246.4883029475255
	Final (previous) structure:
	Cartesian Geometry (in Angstrom)
	   AG     0.0000000000   0.0000000000   0.2980303496
	    F     0.0000000000   0.0000000000  -1.6770336723
	Saving final (previous) structure.
	Cleaning optimization helper files.
			--------------------------
			 OPTKING Finished Execution 
			--------------------------

    Final optimized geometry and variables:
    Molecular point group: c2v
    Full point group: C_inf_v

    Geometry (in Angstrom), charge = 0, multiplicity = 1:

    AG           0.000000000000     0.000000000000     0.298030350775
    F            0.000000000000     0.000000000000    -1.677033678898

	Removing binary optimization data file.
	Cleaning optimization helper files.

Scratch directory: /tmp/
gradient() will perform analytic gradient computation.

*** tstart() called on compute405.bc4.acrc.priv
*** at Tue Nov  2 11:01:16 2021

   => Loading Basis Set <=

    Name: DEF2-TZVPPD
    Role: ORBITAL
    Keyword: BASIS
    atoms 1 entry AG         line  2174 (ECP: line  3646) file /mnt/storage/home/zw18965/.conda/envs/p4env/share/psi4/basis/def2-tzvppd.gbs 
    atoms 2 entry F          line   257 file /mnt/storage/home/zw18965/.conda/envs/p4env/share/psi4/basis/def2-tzvppd.gbs 

    !!!  WARNING: ECP capability is in beta. Please check occupations closely.  !!!

   => MN15-D3(BJ): Empirical Dispersion <=

    Grimme's -D3 (BJ-damping) Dispersion Correction
    Grimme S.; Ehrlich S.; Goerigk L. (2011), J. Comput. Chem., 32: 1456
    Parametrisation from:    L. Goerigk, A. Hansen, C. Bauer, S. Ehrlich, A. Najibi, S. Grimme, Phys. Chem. Chem. Phys. 19, 32184-32215, 2017

        s6 =       1.000000
        s8 =       2.097100
        a1 =       0.786200
        a2 =       7.592300


         ---------------------------------------------------------
                                   SCF
               by Justin Turney, Rob Parrish, Andy Simmonett
                          and Daniel G. A. Smith
                              RKS Reference
                       28 Threads, 114440 MiB Core
         ---------------------------------------------------------

  ==> Geometry <==

    Molecular point group: c2v
    Full point group: C_inf_v

    Geometry (in Angstrom), charge = 0, multiplicity = 1:

       Center              X                  Y                   Z               Mass       
    ------------   -----------------  -----------------  -----------------  -----------------
         AG           0.000000000000     0.000000000000     0.298030350775   106.905091600000
         F            0.000000000000     0.000000000000    -1.677033678898    18.998403162730

  Running in c2v symmetry.

  Rotational constants: A = ************  B =      0.26789  C =      0.26789 [cm^-1]
  Rotational constants: A = ************  B =   8031.13887  C =   8031.13887 [MHz]
  Nuclear repulsion =   45.815883265079641

  Charge       = 0
  Multiplicity = 1
  Electrons    = 28
  Nalpha       = 14
  Nbeta        = 14

  ==> Algorithm <==

  SCF Algorithm Type is DF.
  DIIS enabled.
  MOM disabled.
  Fractional occupation disabled.
  Guess Type is SAD.
  Energy threshold   = 1.00e-08
  Density threshold  = 1.00e-08
  Integral threshold = 1.00e-12

  ==> Primary Basis <==

  Basis Set: DEF2-TZVPPD
    Blend: DEF2-TZVPPD
    Number of shells: 30
    Number of basis functions: 96
    Number of Cartesian functions: 117
    Spherical Harmonics?: true
    Max angular momentum: 4

  Core potential: DEF2-TZVPPD
    Number of shells: 4
    Number of ECP primitives: 14
    Number of ECP core electrons: 28
    Max angular momentum: 3

  ==> DFT Potential <==

   => Composite Functional: MN15-D3BJ <= 

   MN15 Hybrid Meta-GGA Exchange-Correlation Functional

    H. S. Yu, X. He, S. L. Li, and D. G. Truhlar, Chem. Sci. 7, 5032-5051, 2016


    Deriv               =              1
    GGA                 =           TRUE
    Meta                =           TRUE

    Exchange Hybrid     =           TRUE
    MP2 Hybrid          =          FALSE

   => Exchange Functionals <=

    1.0000   XC_HYB_MGGA_X_MN15

   => Exact (HF) Exchange <=

    0.4400               HF 

   => Correlation Functionals <=

    1.0000   XC_MGGA_C_MN15

   => LibXC Density Thresholds  <==

    XC_MGGA_C_MN15:  1.00E-15 
    XC_HYB_MGGA_X_MN15:  1.00E-15 

   => Molecular Quadrature <=

    Radial Scheme          =       TREUTLER
    Pruning Scheme         =           NONE
    Nuclear Scheme         =       TREUTLER

    BS radius alpha        =              1
    Pruning alpha          =              1
    Radial Points          =             75
    Spherical Points       =            302
    Total Points           =          43162
    Total Blocks           =            405
    Max Points             =            255
    Max Functions          =             95
    Weights Tolerance      =       1.00E-15

   => Loading Basis Set <=

    Name: (DEF2-TZVPPD AUX)
    Role: JKFIT
    Keyword: DF_BASIS_SCF
    atoms 1 entry AG         line  4364 file /mnt/storage/home/zw18965/.conda/envs/p4env/share/psi4/basis/def2-universal-jkfit.gbs 
    atoms 2 entry F          line   378 file /mnt/storage/home/zw18965/.conda/envs/p4env/share/psi4/basis/def2-universal-jkfit.gbs 

  ==> Integral Setup <==

  DFHelper Memory: AOs need 0.028 GiB; user supplied 83.569 GiB. Using in-core AOs.

  ==> MemDFJK: Density-Fitted J/K Matrices <==

    J tasked:                   Yes
    K tasked:                   Yes
    wK tasked:                   No
    OpenMP threads:              28
    Memory [MiB]:             85574
    Algorithm:                 Core
    Schwarz Cutoff:           1E-12
    Mask sparsity (%):       0.4557
    Fitting Condition:        1E-10

   => Auxiliary Basis Set <=

  Basis Set: (DEF2-TZVPPD AUX)
    Blend: DEF2-UNIVERSAL-JKFIT
    Number of shells: 74
    Number of basis functions: 332
    Number of Cartesian functions: 477
    Spherical Harmonics?: true
    Max angular momentum: 6

  Cached 100.0% of DFT collocation blocks in 0.250 [GiB].

  Minimum eigenvalue in the overlap matrix is 3.3779551268E-03.
  Reciprocal condition number of the overlap matrix is 7.5277467974E-04.
    Using symmetric orthogonalization.

  ==> Pre-Iterations <==

  SCF Guess: Superposition of Atomic Densities via on-the-fly atomic UHF (no occupation information).

   -------------------------
    Irrep   Nso     Nmo    
   -------------------------
     A1        41      41 
     A2        11      11 
     B1        22      22 
     B2        22      22 
   -------------------------
    Total      96      96
   -------------------------

  ==> Iterations <==

                           Total Energy        Delta E     RMS |[F,P]|

   @DF-RKS iter SAD:  -245.90931819055942   -2.45909e+02   0.00000e+00 
   @DF-RKS iter   1:  -246.31490402094931   -4.05586e-01   1.31431e-02 DIIS
   @DF-RKS iter   2:  -244.18543886991759    2.12947e+00   4.57964e-02 DIIS
   @DF-RKS iter   3:  -246.48347329584499   -2.29803e+00   2.01549e-03 DIIS
   @DF-RKS iter   4:  -246.48627801447481   -2.80472e-03   1.63948e-03 DIIS
   @DF-RKS iter   5:  -246.48792464688435   -1.64663e-03   5.68542e-04 DIIS
   @DF-RKS iter   6:  -246.48823656673764   -3.11920e-04   2.26535e-04 DIIS
   @DF-RKS iter   7:  -246.48829168515940   -5.51184e-05   6.26703e-05 DIIS
   @DF-RKS iter   8:  -246.48830190836776   -1.02232e-05   1.15559e-05 DIIS
   @DF-RKS iter   9:  -246.48830289535346   -9.86986e-07   2.75194e-06 DIIS
   @DF-RKS iter  10:  -246.48830294661957   -5.12661e-08   5.10862e-07 DIIS
   @DF-RKS iter  11:  -246.48830294747918   -8.59615e-10   2.08101e-07 DIIS
   @DF-RKS iter  12:  -246.48830294752472   -4.55316e-11   2.36455e-08 DIIS
   @DF-RKS iter  13:  -246.48830294752560   -8.81073e-13   3.15968e-09 DIIS
  Energy and wave function converged.


  ==> Post-Iterations <==

   Electrons on quadrature grid:
      Ntotal   =   28.0000153995 ; deviation = 1.540e-05 

    Orbital Energies [Eh]
    ---------------------

    Doubly Occupied:                                                      

       1A1   -24.158802     2A1    -3.679583     1B2    -2.331195  
       1B1    -2.331195     3A1    -2.328364     4A1    -1.064550  
       5A1    -0.447714     2B1    -0.425470     2B2    -0.425470  
       1A2    -0.407068     6A1    -0.407067     3B1    -0.338332  
       3B2    -0.338332     7A1    -0.330199  

    Virtual:                                                              

       8A1    -0.093119     4B2     0.032317     4B1     0.032317  
       9A1     0.079938    10A1     0.131305    11A1     0.200168  
       5B1     0.207960     5B2     0.207960     6B1     0.230758  
       6B2     0.230758    12A1     0.279257    13A1     0.389508  
      14A1     0.424446     2A2     0.424447     7B2     0.514451  
       7B1     0.514451    15A1     0.561034    16A1     0.610984  
       3A2     0.610988     8B2     0.734566     8B1     0.734566  
      17A1     0.735333     9B1     0.854704     9B2     0.854704  
      18A1     1.144439    19A1     1.167712    10B2     1.557384  
      10B1     1.557384     4A2     1.571411    20A1     1.571411  
      11B1     1.599915    11B2     1.599915    21A1     1.658311  
      12B1     1.675992    12B2     1.675992    22A1     1.784132  
      23A1     1.966890     5A2     2.022115    24A1     2.022115  
      13B1     2.032985    13B2     2.032985    25A1     2.064321  
       6A2     2.364368    26A1     2.364443    14B1     2.430150  
      14B2     2.430150    27A1     2.780201    15B1     3.388058  
      15B2     3.388058    28A1     3.681337    29A1     4.146515  
      16B2     4.585165    16B1     4.585165    30A1     4.596842  
       7A2     4.596842    17B2     4.659977    17B1     4.659977  
      31A1     4.851592    32A1     5.391809     8A2     5.391813  
      18B2     5.392473    18B1     5.392473     9A2     5.393027  
      33A1     5.393028    19B1     5.394301    19B2     5.394301  
      34A1     5.457344    35A1     6.860258    10A2     6.860568  
      20B1     6.878277    20B2     6.878277    21B1     6.882610  
      21B2     6.882610    36A1     6.991154    37A1     8.375746  
      11A2     8.376296    22B1     8.399899    22B2     8.399899  
      38A1     8.584733    39A1    32.822575    40A1    54.806427  
      41A1   110.544788  

    Final Occupation by Irrep:
             A1    A2    B1    B2 
    DOCC [     7,    1,    3,    3 ]

  @DF-RKS Final Energy:  -246.48830294752560

   => Energetics <=

    Nuclear Repulsion Energy =             45.8158832650796413
    One-Electron Energy =                -492.4256959854396882
    Two-Electron Energy =                 214.0788847427624546
    DFT Exchange-Correlation Energy =     -13.9573595799280525
    Empirical Dispersion Energy =          -0.0000153900000000
    VV10 Nonlocal Energy =                  0.0000000000000000
    Total Energy =                       -246.4883029475255967

Computation Completed


Properties will be evaluated at   0.000000,   0.000000,   0.000000 [a0]

Properties computed using the SCF density matrix

  Nuclear Dipole Moment: [e a0]
     X:     0.0000      Y:     0.0000      Z:   -17.8215

  Electronic Dipole Moment: [e a0]
     X:     0.0000      Y:     0.0000      Z:    20.1156

  Dipole Moment: [e a0]
     X:     0.0000      Y:     0.0000      Z:     2.2941     Total:     2.2941

  Dipole Moment: [D]
     X:     0.0000      Y:     0.0000      Z:     5.8311     Total:     5.8311


*** tstop() called on compute405.bc4.acrc.priv at Tue Nov  2 11:01:21 2021
Module time:
	user time   =      55.56 seconds =       0.93 minutes
	system time =       1.92 seconds =       0.03 minutes
	total time  =          5 seconds =       0.08 minutes
Total time:
	user time   =    1034.69 seconds =      17.24 minutes
	system time =      28.64 seconds =       0.48 minutes
	total time  =        149 seconds =       2.48 minutes

*** tstart() called on compute405.bc4.acrc.priv
*** at Tue Nov  2 11:01:21 2021


         ------------------------------------------------------------
                                   SCF GRAD                          
                          Rob Parrish, Justin Turney,                
                       Andy Simmonett, and Alex Sokolov              
         ------------------------------------------------------------

  ==> Geometry <==

    Molecular point group: c2v
    Full point group: C_inf_v

    Geometry (in Angstrom), charge = 0, multiplicity = 1:

       Center              X                  Y                   Z               Mass       
    ------------   -----------------  -----------------  -----------------  -----------------
         AG           0.000000000000     0.000000000000     0.298030350775   106.905091600000
         F            0.000000000000     0.000000000000    -1.677033678898    18.998403162730

  Nuclear repulsion =   45.815883265079641

  ==> Basis Set <==

  Basis Set: DEF2-TZVPPD
    Blend: DEF2-TZVPPD
    Number of shells: 30
    Number of basis functions: 96
    Number of Cartesian functions: 117
    Spherical Harmonics?: true
    Max angular momentum: 4

  Core potential: DEF2-TZVPPD
    Number of shells: 4
    Number of ECP primitives: 14
    Number of ECP core electrons: 28
    Max angular momentum: 3

  ==> DFJKGrad: Density-Fitted SCF Gradients <==

    Gradient:                    1
    J tasked:                  Yes
    K tasked:                  Yes
    wK tasked:                  No
    OpenMP threads:             28
    Integrals threads:          28
    Memory [MiB]:            85830
    Schwarz Cutoff:          1E-12
    Fitting Condition:       1E-10

   => Auxiliary Basis Set <=

  Basis Set: (DEF2-TZVPPD AUX)
    Blend: DEF2-UNIVERSAL-JKFIT
    Number of shells: 74
    Number of basis functions: 332
    Number of Cartesian functions: 477
    Spherical Harmonics?: true
    Max angular momentum: 6

  ==> DFT Potential <==

   => Composite Functional: MN15-D3BJ <= 

   MN15 Hybrid Meta-GGA Exchange-Correlation Functional

    H. S. Yu, X. He, S. L. Li, and D. G. Truhlar, Chem. Sci. 7, 5032-5051, 2016


    Deriv               =              1
    GGA                 =           TRUE
    Meta                =           TRUE

    Exchange Hybrid     =           TRUE
    MP2 Hybrid          =          FALSE

   => Exchange Functionals <=

    1.0000   XC_HYB_MGGA_X_MN15

   => Exact (HF) Exchange <=

    0.4400               HF 

   => Correlation Functionals <=

    1.0000   XC_MGGA_C_MN15

   => LibXC Density Thresholds  <==

    XC_MGGA_C_MN15:  1.00E-15 
    XC_HYB_MGGA_X_MN15:  1.00E-15 

   => Molecular Quadrature <=

    Radial Scheme          =       TREUTLER
    Pruning Scheme         =           NONE
    Nuclear Scheme         =       TREUTLER

    BS radius alpha        =              1
    Pruning alpha          =              1
    Radial Points          =             75
    Spherical Points       =            302
    Total Points           =          43162
    Total Blocks           =            405
    Max Points             =            255
    Max Functions          =             95
    Weights Tolerance      =       1.00E-15


  -Total Gradient:
     Atom            X                  Y                   Z
    ------   -----------------  -----------------  -----------------
       1       -0.000000000000     0.000000000000    -0.114827375562
       2       -0.000000000000     0.000000000000     0.114992024675


*** tstop() called on compute405.bc4.acrc.priv at Tue Nov  2 11:01:26 2021
Module time:
	user time   =      35.05 seconds =       0.58 minutes
	system time =       1.49 seconds =       0.02 minutes
	total time  =          5 seconds =       0.08 minutes
Total time:
	user time   =    1073.27 seconds =      17.89 minutes
	system time =      30.30 seconds =       0.51 minutes
	total time  =        154 seconds =       2.57 minutes


  ==> Adding ECP gradient terms (computed numerically) <==

  -ECP Gradient:
     Atom            X                  Y                   Z
    ------   -----------------  -----------------  -----------------
       1       -0.000000000000     0.000000000000     0.114908292306
       2       -0.000000000000     0.000000000000    -0.114908292312


  -Total Gradient:
     Atom            X                  Y                   Z
    ------   -----------------  -----------------  -----------------
       1       -0.000000000000     0.000000000000     0.000080916745
       2       -0.000000000000     0.000000000000     0.000083732363


  Based on options and gradient (rms=4.75E-05), recommend projecting translations and projecting rotations.
hessian() will perform frequency computation by finite difference of analytic gradients.

         ----------------------------------------------------------
                                   FINDIF
                     R. A. King and Jonathon Misiewicz
         ---------------------------------------------------------

  Using finite-differences of gradients to determine vibrational frequencies and 
  normal modes. Resulting frequencies are only valid at stationary points.
    Generating geometries for use with 3-point formula.
    Displacement size will be 5.00e-03.
    Number of atoms is 2.
    Number of irreps is 4.
    Number of SALCs is 1.
    Translations projected? 1. Rotations projected? 1.
    Index of SALCs per irrep:
     1 :  0 
     2 : 
     3 : 
     4 : 
    Number of SALCs per irrep:
     Irrep 1: 1
     Irrep 2: 0
     Irrep 3: 0
     Irrep 4: 0
    Number of geometries (including reference) is 3.
    Number of displacements per irrep:
      Irrep 1: 2
      Irrep 2: 0
      Irrep 3: 0
      Irrep 4: 0

  //>>>>>>>>>>>>>>>>>>>>>>>>>>>>>>>>>>>//
  //    Loading displacement 1 of 3    //
  //<<<<<<<<<<<<<<<<<<<<<<<<<<<<<<<<<<<//

Scratch directory: /tmp/
gradient() will perform analytic gradient computation.

*** tstart() called on compute405.bc4.acrc.priv
*** at Tue Nov  2 11:02:03 2021

   => Loading Basis Set <=

    Name: DEF2-TZVPPD
    Role: ORBITAL
    Keyword: BASIS
    atoms 1 entry AG         line  2174 (ECP: line  3646) file /mnt/storage/home/zw18965/.conda/envs/p4env/share/psi4/basis/def2-tzvppd.gbs 
    atoms 2 entry F          line   257 file /mnt/storage/home/zw18965/.conda/envs/p4env/share/psi4/basis/def2-tzvppd.gbs 

    !!!  WARNING: ECP capability is in beta. Please check occupations closely.  !!!

   => MN15-D3(BJ): Empirical Dispersion <=

    Grimme's -D3 (BJ-damping) Dispersion Correction
    Grimme S.; Ehrlich S.; Goerigk L. (2011), J. Comput. Chem., 32: 1456
    Parametrisation from:    L. Goerigk, A. Hansen, C. Bauer, S. Ehrlich, A. Najibi, S. Grimme, Phys. Chem. Chem. Phys. 19, 32184-32215, 2017

        s6 =       1.000000
        s8 =       2.097100
        a1 =       0.786200
        a2 =       7.592300


         ---------------------------------------------------------
                                   SCF
               by Justin Turney, Rob Parrish, Andy Simmonett
                          and Daniel G. A. Smith
                              RKS Reference
                       28 Threads, 114440 MiB Core
         ---------------------------------------------------------

  ==> Geometry <==

    Molecular point group: c2v
    Full point group: C_inf_v

    Geometry (in Angstrom), charge = 0, multiplicity = 1:

       Center              X                  Y                   Z               Mass       
    ------------   -----------------  -----------------  -----------------  -----------------
[...]

  Core potential: DEF2-TZVPPD
    Number of shells: 4
    Number of ECP primitives: 14
    Number of ECP core electrons: 28
    Max angular momentum: 3

  ==> DFT Potential <==

   => Composite Functional: MN15-D3BJ <= 

   MN15 Hybrid Meta-GGA Exchange-Correlation Functional

    H. S. Yu, X. He, S. L. Li, and D. G. Truhlar, Chem. Sci. 7, 5032-5051, 2016


    Deriv               =              1
    GGA                 =           TRUE
    Meta                =           TRUE

    Exchange Hybrid     =           TRUE
    MP2 Hybrid          =          FALSE

   => Exchange Functionals <=

    1.0000   XC_HYB_MGGA_X_MN15

   => Exact (HF) Exchange <=

    0.4400               HF 

   => Correlation Functionals <=

    1.0000   XC_MGGA_C_MN15

   => LibXC Density Thresholds  <==

    XC_MGGA_C_MN15:  1.00E-15 
    XC_HYB_MGGA_X_MN15:  1.00E-15 

   => Molecular Quadrature <=

    Radial Scheme          =       TREUTLER
    Pruning Scheme         =           NONE
    Nuclear Scheme         =       TREUTLER

    BS radius alpha        =              1
    Pruning alpha          =              1
    Radial Points          =             75
    Spherical Points       =            302
    Total Points           =          43161
    Total Blocks           =            405
    Max Points             =            255
    Max Functions          =             95
    Weights Tolerance      =       1.00E-15

   => Loading Basis Set <=

    Name: (DEF2-TZVPPD AUX)
    Role: JKFIT
    Keyword: DF_BASIS_SCF
    atoms 1 entry AG         line  4364 file /mnt/storage/home/zw18965/.conda/envs/p4env/share/psi4/basis/def2-universal-jkfit.gbs 
    atoms 2 entry F          line   378 file /mnt/storage/home/zw18965/.conda/envs/p4env/share/psi4/basis/def2-universal-jkfit.gbs 

  ==> Integral Setup <==

  DFHelper Memory: AOs need 0.028 GiB; user supplied 83.569 GiB. Using in-core AOs.

  ==> MemDFJK: Density-Fitted J/K Matrices <==

    J tasked:                   Yes
    K tasked:                   Yes
    wK tasked:                   No
    OpenMP threads:              28
    Memory [MiB]:             85574
    Algorithm:                 Core
    Schwarz Cutoff:           1E-12
    Mask sparsity (%):       0.4557
    Fitting Condition:        1E-10

   => Auxiliary Basis Set <=

  Basis Set: (DEF2-TZVPPD AUX)
    Blend: DEF2-UNIVERSAL-JKFIT
    Number of shells: 74
    Number of basis functions: 332
    Number of Cartesian functions: 477
    Spherical Harmonics?: true
    Max angular momentum: 6

  Cached 100.0% of DFT collocation blocks in 0.250 [GiB].

  Minimum eigenvalue in the overlap matrix is 3.3831200673E-03.
  Reciprocal condition number of the overlap matrix is 7.5401157380E-04.
    Using symmetric orthogonalization.

  ==> Pre-Iterations <==

  SCF Guess: Superposition of Atomic Densities via on-the-fly atomic UHF (no occupation information).

   -------------------------
    Irrep   Nso     Nmo    
   -------------------------
     A1        41      41 
     A2        11      11 
     B1        22      22 
     B2        22      22 
   -------------------------
    Total      96      96
   -------------------------

  ==> Iterations <==

                           Total Energy        Delta E     RMS |[F,P]|

   @DF-RKS iter SAD:  -245.88246934849744   -2.45882e+02   0.00000e+00 
   @DF-RKS iter   1:  -246.30865385754601   -4.26185e-01   1.34019e-02 DIIS
   @DF-RKS iter   2:  -244.03088069840175    2.27777e+00   4.70984e-02 DIIS
   @DF-RKS iter   3:  -246.48310508282538   -2.45222e+00   2.12347e-03 DIIS
   @DF-RKS iter   4:  -246.48615748501956   -3.05240e-03   1.68598e-03 DIIS
   @DF-RKS iter   5:  -246.48789171988807   -1.73423e-03   5.96843e-04 DIIS
   @DF-RKS iter   6:  -246.48823013170104   -3.38412e-04   2.39161e-04 DIIS
   @DF-RKS iter   7:  -246.48829042588437   -6.02942e-05   6.59802e-05 DIIS
   @DF-RKS iter   8:  -246.48830164509835   -1.12192e-05   1.20405e-05 DIIS
   @DF-RKS iter   9:  -246.48830270680082   -1.06170e-06   2.94179e-06 DIIS
   @DF-RKS iter  10:  -246.48830276510557   -5.83047e-08   5.38458e-07 DIIS
   @DF-RKS iter  11:  -246.48830276609840   -9.92827e-10   2.20617e-07 DIIS
   @DF-RKS iter  12:  -246.48830276614970   -5.13012e-11   2.55508e-08 DIIS
   @DF-RKS iter  13:  -246.48830276615058   -8.81073e-13   3.63689e-09 DIIS
  Energy and wave function converged.


  ==> Post-Iterations <==

   Electrons on quadrature grid:
      Ntotal   =   28.0000155091 ; deviation = 1.551e-05 

    Orbital Energies [Eh]
    ---------------------

    Doubly Occupied:                                                      

       1A1   -24.158739     2A1    -3.679602     1B2    -2.331219  
       1B1    -2.331219     3A1    -2.328377     4A1    -1.064443  
       5A1    -0.447626     2B1    -0.425425     2B2    -0.425425  
       1A2    -0.407096     6A1    -0.407096     3B1    -0.338315  
       3B2    -0.338315     7A1    -0.330223  

    Virtual:                                                              

       8A1    -0.093163     4B2     0.032300     4B1     0.032300  
       9A1     0.079914    10A1     0.131293    11A1     0.200178  
       5B1     0.207966     5B2     0.207966     6B1     0.230740  
       6B2     0.230740    12A1     0.279209    13A1     0.389442  
      14A1     0.424439     2A2     0.424439     7B2     0.514392  
       7B1     0.514392    15A1     0.561068    16A1     0.610995  
       3A2     0.610999     8B2     0.734590     8B1     0.734590  
      17A1     0.735315     9B1     0.854664     9B2     0.854664  
      18A1     1.144468    19A1     1.167536    10B2     1.557348  
      10B1     1.557348     4A2     1.571358    20A1     1.571359  
      11B1     1.599902    11B2     1.599902    21A1     1.658307  
      12B1     1.675947    12B2     1.675947    22A1     1.784323  
      23A1     1.966740     5A2     2.022094    24A1     2.022094  
      13B1     2.033092    13B2     2.033092    25A1     2.064378  
       6A2     2.364443    26A1     2.364516    14B2     2.430012  
      14B1     2.430012    27A1     2.779400    15B2     3.388089  
      15B1     3.388089    28A1     3.681169    29A1     4.146619  
      16B1     4.585140    16B2     4.585140    30A1     4.596806  
       7A2     4.596807    17B2     4.659871    17B1     4.659871  
      31A1     4.851204    32A1     5.391789     8A2     5.391793  
      18B2     5.392445    18B1     5.392445     9A2     5.392995  
      33A1     5.392996    19B1     5.394276    19B2     5.394276  
      34A1     5.456941    35A1     6.860347    10A2     6.860656  
      20B2     6.878363    20B1     6.878363    21B2     6.882549  
      21B1     6.882549    36A1     6.990871    37A1     8.375822  
      11A2     8.376373    22B2     8.399868    22B1     8.399868  
      38A1     8.584166    39A1    32.822492    40A1    54.806335  
      41A1   110.544752  

    Final Occupation by Irrep:
             A1    A2    B1    B2 
    DOCC [     7,    1,    3,    3 ]

  @DF-RKS Final Energy:  -246.48830276615058

   => Energetics <=

    Nuclear Repulsion Energy =             45.8006068187917990
    One-Electron Energy =                -492.3956413787836937
    Two-Electron Energy =                 214.0640485495070209
    DFT Exchange-Correlation Energy =     -13.9573013656657103
    Empirical Dispersion Energy =          -0.0000153900000000
    VV10 Nonlocal Energy =                  0.0000000000000000
    Total Energy =                       -246.4883027661505821

Computation Completed


Properties will be evaluated at   0.000000,   0.000000,   0.000000 [a0]

Properties computed using the SCF density matrix

  Nuclear Dipole Moment: [e a0]
     X:     0.0000      Y:     0.0000      Z:   -17.8274

  Electronic Dipole Moment: [e a0]
     X:     0.0000      Y:     0.0000      Z:    20.1228

  Dipole Moment: [e a0]
     X:     0.0000      Y:     0.0000      Z:     2.2953     Total:     2.2953

  Dipole Moment: [D]
     X:     0.0000      Y:     0.0000      Z:     5.8341     Total:     5.8341


*** tstop() called on compute405.bc4.acrc.priv at Tue Nov  2 11:03:44 2021
Module time:
	user time   =      55.28 seconds =       0.92 minutes
	system time =       1.79 seconds =       0.03 minutes
	total time  =          5 seconds =       0.08 minutes
Total time:
	user time   =    2045.02 seconds =      34.08 minutes
	system time =      52.75 seconds =       0.88 minutes
	total time  =        292 seconds =       4.87 minutes

*** tstart() called on compute405.bc4.acrc.priv
*** at Tue Nov  2 11:03:44 2021


         ------------------------------------------------------------
                                   SCF GRAD                          
                          Rob Parrish, Justin Turney,                
                       Andy Simmonett, and Alex Sokolov              
         ------------------------------------------------------------

  ==> Geometry <==

    Molecular point group: c2v
    Full point group: C_inf_v

    Geometry (in Angstrom), charge = 0, multiplicity = 1:

       Center              X                  Y                   Z               Mass       
    ------------   -----------------  -----------------  -----------------  -----------------
         AG           0.000000000000     0.000000000000     0.298129756546   106.905091600000
         F            0.000000000000     0.000000000000    -1.677593040808    18.998403162730

  Nuclear repulsion =   45.800606818791799

  ==> Basis Set <==

  Basis Set: DEF2-TZVPPD
    Blend: DEF2-TZVPPD
    Number of shells: 30
    Number of basis functions: 96
    Number of Cartesian functions: 117
    Spherical Harmonics?: true
    Max angular momentum: 4

  Core potential: DEF2-TZVPPD
    Number of shells: 4
    Number of ECP primitives: 14
    Number of ECP core electrons: 28
    Max angular momentum: 3

  ==> DFJKGrad: Density-Fitted SCF Gradients <==

    Gradient:                    1
    J tasked:                  Yes
    K tasked:                  Yes
    wK tasked:                  No
    OpenMP threads:             28
    Integrals threads:          28
    Memory [MiB]:            85830
    Schwarz Cutoff:          1E-12
    Fitting Condition:       1E-10

   => Auxiliary Basis Set <=

  Basis Set: (DEF2-TZVPPD AUX)
    Blend: DEF2-UNIVERSAL-JKFIT
    Number of shells: 74
    Number of basis functions: 332
    Number of Cartesian functions: 477
    Spherical Harmonics?: true
    Max angular momentum: 6

  ==> DFT Potential <==

   => Composite Functional: MN15-D3BJ <= 

   MN15 Hybrid Meta-GGA Exchange-Correlation Functional

    H. S. Yu, X. He, S. L. Li, and D. G. Truhlar, Chem. Sci. 7, 5032-5051, 2016


    Deriv               =              1
    GGA                 =           TRUE
    Meta                =           TRUE

    Exchange Hybrid     =           TRUE
    MP2 Hybrid          =          FALSE

   => Exchange Functionals <=

    1.0000   XC_HYB_MGGA_X_MN15

   => Exact (HF) Exchange <=

    0.4400               HF 

   => Correlation Functionals <=

    1.0000   XC_MGGA_C_MN15

   => LibXC Density Thresholds  <==

    XC_MGGA_C_MN15:  1.00E-15 
    XC_HYB_MGGA_X_MN15:  1.00E-15 

   => Molecular Quadrature <=

    Radial Scheme          =       TREUTLER
    Pruning Scheme         =           NONE
    Nuclear Scheme         =       TREUTLER

    BS radius alpha        =              1
    Pruning alpha          =              1
    Radial Points          =             75
    Spherical Points       =            302
    Total Points           =          43161
    Total Blocks           =            405
    Max Points             =            255
    Max Functions          =             95
    Weights Tolerance      =       1.00E-15


  -Total Gradient:
     Atom            X                  Y                   Z
    ------   -----------------  -----------------  -----------------
       1       -0.000000000000     0.000000000000    -0.114441585926
       2       -0.000000000000    -0.000000000000     0.114606469671


*** tstop() called on compute405.bc4.acrc.priv at Tue Nov  2 11:03:51 2021
Module time:
	user time   =      34.87 seconds =       0.58 minutes
	system time =       3.22 seconds =       0.05 minutes
	total time  =          7 seconds =       0.12 minutes
Total time:
	user time   =    2083.42 seconds =      34.72 minutes
	system time =      56.15 seconds =       0.94 minutes
	total time  =        299 seconds =       4.98 minutes


  ==> Adding ECP gradient terms (computed numerically) <==

  -ECP Gradient:
     Atom            X                  Y                   Z
    ------   -----------------  -----------------  -----------------
       1        0.000000000000     0.000000000000     0.114720156897
       2        0.000000000000     0.000000000000    -0.114720156909


  -Total Gradient:
     Atom            X                  Y                   Z
    ------   -----------------  -----------------  -----------------
       1       -0.000000000000     0.000000000000     0.000278570971
       2       -0.000000000000     0.000000000000    -0.000113687238


         ----------------------------------------------------------
                                   FINDIF
                     R. A. King and Jonathon Misiewicz
         ---------------------------------------------------------

  Computing second-derivative from gradients using projected, 
  symmetry-adapted, cartesian coordinates.

  3 gradients passed in, including the reference geometry.
  Generating complete list of displacements from unique ones.


-------------------------------------------------------------


  ==> Harmonic Vibrational Analysis <==

  non-mass-weighted Hessian:       Symmetric? True   Hermitian? True   Lin Dep Dim?  5 (0)
  projection of translations (True) and rotations (True) removed 5 degrees of freedom (5)
  total projector:                 Symmetric? True   Hermitian? True   Lin Dep Dim?  5 (5)
  mass-weighted Hessian:           Symmetric? True   Hermitian? True   Lin Dep Dim?  5 (0)
  pre-proj  low-frequency mode:    0.0000  [cm^-1]
  pre-proj  low-frequency mode:    0.0000  [cm^-1]
  pre-proj  low-frequency mode:    0.0000  [cm^-1]
  pre-proj  low-frequency mode:    0.0000  [cm^-1]
  pre-proj  low-frequency mode:    0.0000  [cm^-1]
  pre-proj  all modes:['0.0000' '0.0000' '0.0000' '0.0000' '0.0000' '510.1539']
  projected mass-weighted Hessian: Symmetric? True   Hermitian? True   Lin Dep Dim?  5 (5)
  post-proj low-frequency mode:    0.0000  [cm^-1] (TR)
  post-proj low-frequency mode:    0.0000  [cm^-1] (TR)
  post-proj low-frequency mode:    0.0000  [cm^-1] (TR)
  post-proj low-frequency mode:    0.0000  [cm^-1] (TR)
  post-proj low-frequency mode:    0.0000  [cm^-1] (TR)
  post-proj  all modes:['0.0000' '0.0000' '0.0000' '0.0000' '0.0000' '510.1539']

  Vibration                       6           
  Freq [cm^-1]                 510.1539       
  Irrep                           A1          
  Reduced mass [u]             21.6897        
  Force const [mDyne/A]         3.3259        
  Turning point v=0 [a0]        0.1043        
  RMS dev v=0 [a0 u^1/2]        0.3435        
  Char temp [K]                733.9979       
  ----------------------------------------------------------------------------------
      1   AG               0.00  0.00 -0.17   
      2   F                0.00  0.00  0.98   

  ==> Thermochemistry Components <==

  Entropy, S
    Electronic S            0.000 [cal/(mol K)]        0.000 [J/(mol K)]       0.00000000 [mEh/K] (multiplicity = 1)
    Translational S        40.405 [cal/(mol K)]      169.053 [J/(mol K)]       0.06438884 [mEh/K] (mol. weight = 125.9035 [u], P = 101325.00 [Pa])
    Rotational S           15.204 [cal/(mol K)]       63.614 [J/(mol K)]       0.02422921 [mEh/K] (symmetry no. = 1)
    Vibrational S           0.633 [cal/(mol K)]        2.649 [J/(mol K)]       0.00100910 [mEh/K]
  Total S                  56.242 [cal/(mol K)]      235.316 [J/(mol K)]       0.08962715 [mEh/K]
  Correction S              0.000 [cal/(mol K)]        0.000 [J/(mol K)]       0.00000000 [mEh/K]

  Constant volume heat capacity, Cv
    Electronic Cv           0.000 [cal/(mol K)]        0.000 [J/(mol K)]       0.00000000 [mEh/K]
    Translational Cv        2.981 [cal/(mol K)]       12.472 [J/(mol K)]       0.00475022 [mEh/K]
    Rotational Cv           1.987 [cal/(mol K)]        8.314 [J/(mol K)]       0.00316681 [mEh/K]
    Vibrational Cv          1.227 [cal/(mol K)]        5.136 [J/(mol K)]       0.00195614 [mEh/K]
  Total Cv                  6.196 [cal/(mol K)]       25.922 [J/(mol K)]       0.00987317 [mEh/K]
  Correction Cv             0.000 [cal/(mol K)]        0.000 [J/(mol K)]       0.00000000 [mEh/K]

  Constant pressure heat capacity, Cp
    Electronic Cp           0.000 [cal/(mol K)]        0.000 [J/(mol K)]       0.00000000 [mEh/K]
    Translational Cp        4.968 [cal/(mol K)]       20.786 [J/(mol K)]       0.00791703 [mEh/K]
    Rotational Cp           1.987 [cal/(mol K)]        8.314 [J/(mol K)]       0.00316681 [mEh/K]
    Vibrational Cp          1.227 [cal/(mol K)]        5.136 [J/(mol K)]       0.00195614 [mEh/K]
  Total Cp                  8.183 [cal/(mol K)]       34.236 [J/(mol K)]       0.01303998 [mEh/K]
  Correction Cp             0.000 [cal/(mol K)]        0.000 [J/(mol K)]       0.00000000 [mEh/K]

  ==> Thermochemistry Energy Analysis <==

  Raw electronic energy, E0
  Total E0, Electronic energy at well bottom at 0 [K]                 -246.48830295 [Eh]

  Zero-point energy, ZPE_vib = Sum_i nu_i / 2
    Electronic ZPE          0.000 [kcal/mol]        0.000 [kJ/mol]       0.00000000 [Eh]
    Translational ZPE       0.000 [kcal/mol]        0.000 [kJ/mol]       0.00000000 [Eh]
    Rotational ZPE          0.000 [kcal/mol]        0.000 [kJ/mol]       0.00000000 [Eh]
    Vibrational ZPE         0.729 [kcal/mol]        3.051 [kJ/mol]       0.00116222 [Eh]         255.077 [cm^-1]
  Correction ZPE            0.729 [kcal/mol]        3.051 [kJ/mol]       0.00116222 [Eh]         255.077 [cm^-1]
  Total ZPE, Electronic energy at 0 [K]                               -246.48714073 [Eh]

  Thermal Energy, E (includes ZPE)
    Electronic E            0.000 [kcal/mol]        0.000 [kJ/mol]       0.00000000 [Eh]
    Translational E         0.889 [kcal/mol]        3.718 [kJ/mol]       0.00141628 [Eh]
    Rotational E            0.592 [kcal/mol]        2.479 [kJ/mol]       0.00094418 [Eh]
    Vibrational E           0.865 [kcal/mol]        3.620 [kJ/mol]       0.00137892 [Eh]
  Correction E              2.346 [kcal/mol]        9.818 [kJ/mol]       0.00373938 [Eh]
  Total E, Electronic energy at  298.15 [K]                           -246.48456357 [Eh]

  Enthalpy, H_trans = E_trans + k_B * T
    Electronic H            0.000 [kcal/mol]        0.000 [kJ/mol]       0.00000000 [Eh]
    Translational H         1.481 [kcal/mol]        6.197 [kJ/mol]       0.00236046 [Eh]
    Rotational H            0.592 [kcal/mol]        2.479 [kJ/mol]       0.00094418 [Eh]
    Vibrational H           0.865 [kcal/mol]        3.620 [kJ/mol]       0.00137892 [Eh]
  Correction H              2.939 [kcal/mol]       12.297 [kJ/mol]       0.00468356 [Eh]
  Total H, Enthalpy at  298.15 [K]                                    -246.48361938 [Eh]

  Gibbs free energy, G = H - T * S
    Electronic G            0.000 [kcal/mol]        0.000 [kJ/mol]       0.00000000 [Eh]
    Translational G       -10.565 [kcal/mol]      -44.206 [kJ/mol]      -0.01683707 [Eh]
    Rotational G           -3.941 [kcal/mol]      -16.487 [kJ/mol]      -0.00627975 [Eh]
    Vibrational G           0.676 [kcal/mol]        2.830 [kJ/mol]       0.00107806 [Eh]
  Correction G            -13.830 [kcal/mol]      -57.863 [kJ/mol]      -0.02203877 [Eh]
  Total G, Free enthalpy at  298.15 [K]                               -246.51034172 [Eh]

    Psi4 stopped on: Tuesday, 02 November 2021 11:04AM
    Psi4 wall time for execution: 0:05:36.56

*** Psi4 exiting successfully. Buy a developer a beer!
