Optimizer: Optimization complete!
 3 displacements needed.
 1 2 3
Warning: used thermodynamics relations inappropriate for low-frequency modes: ['510.0463']
At level 1: Red. Int., RFO, no backsteps, dynamic trust
At level 1: Red. Int., RFO, no backsteps, dynamic trust
At level 1: Red. Int., RFO, no backsteps, dynamic trust
DePrince III, E. G. Hohenstein, U. Bozkaya, A. Yu. Sokolov,
    R. Di Remigio, R. M. Richard, J. F. Gonthier, A. M. James,
    H. R. McAlexander, A. Kumar, M. Saitow, X. Wang, B. P. Pritchard,
    P. Verma, H. F. Schaefer III, K. Patkowski, R. A. King, E. F. Valeev,
    F. A. Evangelista, J. M. Turney, T. D. Crawford, and C. D. Sherrill,
    J. Chem. Theory Comput. 13(7) pp 3185--3197 (2017).
    (doi: 10.1021/acs.jctc.7b00174)


                         Additional Contributions by
    P. Kraus, H. Kruse, M. H. Lechner, M. C. Schieber, R. A. Shaw,
    A. Alenaizan, R. Galvelis, Z. L. Glick, S. Lehtola, and J. P. Misiewicz

    -----------------------------------------------------------------------


    Psi4 started on: Friday, 29 October 2021 08:36AM

    Process ID: 246968
    Host:       bp1-compute00116.data.bp.acrc.priv
    PSIDATADIR: /work/zw18965/.conda/envs/p4env/share/psi4
    Memory:     500.0 MiB
    Threads:    24
    
  ==> Input File <==

--------------------------------------------------------------------------
memory 144 GB

molecule {
0 1
Ag       0.000000    0.000000    0.317712 
F        0.000000    0.000000   -1.659163 
 }

set dynamic_level 1
set basis Def2-TZVPPD

optimize("MN15-D3BJ")
frequencies("MN15-D3BJ")
--------------------------------------------------------------------------

  Memory set to 134.110 GiB by Python driver.
gradient() will perform analytic gradient computation.

*** tstart() called on bp1-compute00116.data.bp.acrc.priv
*** at Fri Oct 29 08:36:08 2021

   => Loading Basis Set <=

    Name: DEF2-TZVPPD
    Role: ORBITAL
    Keyword: BASIS
    atoms 1 entry AG         line  2174 (ECP: line  3646) file /work/zw18965/.conda/envs/p4env/share/psi4/basis/def2-tzvppd.gbs 
    atoms 2 entry F          line   257 file /work/zw18965/.conda/envs/p4env/share/psi4/basis/def2-tzvppd.gbs 

    !!!  WARNING: ECP capability is in beta. Please check occupations closely.  !!!


         ---------------------------------------------------------
                                   SCF
               by Justin Turney, Rob Parrish, Andy Simmonett
                          and Daniel G. A. Smith
                              RKS Reference
                       24 Threads, 137329 MiB Core
         ---------------------------------------------------------

  ==> Geometry <==

    Molecular point group: c2v
    Full point group: C_inf_v

    Geometry (in Angstrom), charge = 0, multiplicity = 1:

       Center              X                  Y                   Z               Mass       
    ------------   -----------------  -----------------  -----------------  -----------------
         AG           0.000000000000     0.000000000000     0.298303619952   106.905091600000
         F            0.000000000000     0.000000000000    -1.678571380048    18.998403162730

  Running in c2v symmetry.

  Rotational constants: A = ************  B =      0.26740  C =      0.26740 [cm^-1]
  Rotational constants: A = ************  B =   8016.43133  C =   8016.43133 [MHz]
  Nuclear repulsion =   45.773912374110651

  Charge       = 0
  Multiplicity = 1
  Electrons    = 28
  Nalpha       = 14
  Nbeta        = 14

  ==> Algorithm <==

  SCF Algorithm Type is DF.
  DIIS enabled.
  MOM disabled.
  Fractional occupation disabled.
  Guess Type is SAD.
  Energy threshold   = 1.00e-08
  Density threshold  = 1.00e-08
  Integral threshold = 0.00e+00

  ==> Primary Basis <==

  Basis Set: DEF2-TZVPPD
    Blend: DEF2-TZVPPD
    Number of shells: 30
    Number of basis function: 96
    Number of Cartesian functions: 117
    Spherical Harmonics?: true
    Max angular momentum: 4

  Core potential: DEF2-TZVPPD
    Number of shells: 4
    Number of ECP primitives: 14
    Number of ECP core electrons: 28
    Max angular momentum: 3

  ==> DFT Potential <==

   => Composite Functional: MN15-D3BJ <= 

   MN15 Hybrid Meta-GGA Exchange-Correlation Functional

    H. S. Yu, X. He, S. L. Li, and D. G. Truhlar, Chem. Sci. 7, 5032-5051, 2016


    Deriv               =              1
    GGA                 =           TRUE
    Meta                =           TRUE

    Exchange Hybrid     =           TRUE
    MP2 Hybrid          =          FALSE

   => Exchange Functionals <=

    1.0000   XC_HYB_MGGA_X_MN15

   => Exact (HF) Exchange <=

    0.4400               HF 

   => Correlation Functionals <=

    1.0000   XC_MGGA_C_MN15

   => Molecular Quadrature <=

    Radial Scheme          =       TREUTLER
    Pruning Scheme         =           FLAT
    Nuclear Scheme         =       TREUTLER

    BS radius alpha        =              1
    Pruning alpha          =              1
    Radial Points          =             75
    Spherical Points       =            302
    Total Points           =          45055
    Total Blocks           =            425
    Max Points             =            254
    Max Functions          =             95

   => MN15-D3(BJ): Empirical Dispersion <=

    Grimme's -D3 (BJ-damping) Dispersion Correction
    Grimme S.; Ehrlich S.; Goerigk L. (2011), J. Comput. Chem., 32: 1456
    Parametrisation from:    L. Goerigk, A. Hansen, C. Bauer, S. Ehrlich, A. Najibi, S. Grimme, Phys. Chem. Chem. Phys. 19, 32184-32215, 2017

        s6 =       1.000000
        s8 =       2.097100
        a1 =       0.786200
        a2 =       7.592300

   => Loading Basis Set <=

    Name: (DEF2-TZVPPD AUX)
    Role: JKFIT
    Keyword: DF_BASIS_SCF
    atoms 1 entry AG         line  4369 file /work/zw18965/.conda/envs/p4env/share/psi4/basis/def2-tzvpp-jkfit.gbs 
    atoms 2 entry F          line   383 file /work/zw18965/.conda/envs/p4env/share/psi4/basis/def2-tzvpp-jkfit.gbs 

  ==> Pre-Iterations <==

   -------------------------------------------------------
    Irrep   Nso     Nmo     Nalpha   Nbeta   Ndocc  Nsocc
   -------------------------------------------------------
     A1        41      41       0       0       0       0
     A2        11      11       0       0       0       0
     B1        22      22       0       0       0       0
     B2        22      22       0       0       0       0
   -------------------------------------------------------
    Total      96      96      14      14      14       0
   -------------------------------------------------------

  ==> Integral Setup <==

  DFHelper Memory: AOs need 0.028 GiB; user supplied 100.320 GiB. Using in-core AOs.

  ==> MemDFJK: Density-Fitted J/K Matrices <==

    J tasked:                   Yes
    K tasked:                   Yes
    wK tasked:                   No
    OpenMP threads:              24
    Memory [MiB]:            102727
    Algorithm:                 Core
    Schwarz Cutoff:           1E-12
    Mask sparsity (%):       0.4557
    Fitting Condition:        1E-10

   => Auxiliary Basis Set <=

  Basis Set: (DEF2-TZVPPD AUX)
    Blend: DEF2-TZVPP-JKFIT
    Number of shells: 74
    Number of basis function: 332
    Number of Cartesian functions: 477
    Spherical Harmonics?: true
    Max angular momentum: 6

  Cached 100.0% of DFT collocation blocks in 0.263 [GiB].

  Minimum eigenvalue in the overlap matrix is 3.3921717907E-03.
  Using Symmetric Orthogonalization.

  SCF Guess: Superposition of Atomic Densities via on-the-fly atomic UHF.

  ==> Iterations <==

                           Total Energy        Delta E     RMS |[F,P]|

   @DF-RKS iter SAD:  -245.88175525797877   -2.45882e+02   0.00000e+00 
   @DF-RKS iter   1:  -246.30823396211156   -4.26479e-01   1.34136e-02 DIIS
   @DF-RKS iter   2:  -244.01566735528442    2.29257e+00   4.72149e-02 DIIS
   @DF-RKS iter   3:  -246.48307504837942   -2.46741e+00   2.13344e-03 DIIS
   @DF-RKS iter   4:  -246.48614648192537   -3.07143e-03   1.68900e-03 DIIS
   @DF-RKS iter   5:  -246.48788612803494   -1.73965e-03   6.00170e-04 DIIS
   @DF-RKS iter   6:  -246.48822768687648   -3.41559e-04   2.40394e-04 DIIS
   @DF-RKS iter   7:  -246.48828851743426   -6.08306e-05   6.62032e-05 DIIS
   @DF-RKS iter   8:  -246.48829979628087   -1.12788e-05   1.20790e-05 DIIS
   @DF-RKS iter   9:  -246.48830086479271   -1.06851e-06   2.95945e-06 DIIS
   @DF-RKS iter  10:  -246.48830092373851   -5.89458e-08   5.41282e-07 DIIS
   @DF-RKS iter  11:  -246.48830092474464   -1.00613e-09   2.21914e-07 DIIS
   @DF-RKS iter  12:  -246.48830092479690   -5.22675e-11   2.58864e-08 DIIS
   @DF-RKS iter  13:  -246.48830092479767   -7.67386e-13   3.68240e-09 DIIS
  Energy and wave function converged.


  ==> Post-Iterations <==

    Orbital Energies [Eh]
    ---------------------

    Doubly Occupied:                                                      

       1A1   -24.158606     2A1    -3.679621     1B1    -2.331258  
       1B2    -2.331258     3A1    -2.328391     4A1    -1.064252  
       5A1    -0.447468     2B2    -0.425348     2B1    -0.425348  
       1A2    -0.407153     6A1    -0.407146     3B1    -0.338279  
       3B2    -0.338279     7A1    -0.330261  

    Virtual:                                                              

       8A1    -0.093243     4B1     0.032270     4B2     0.032270  
       9A1     0.079856    10A1     0.131263    11A1     0.200197  
       5B1     0.207976     5B2     0.207976     6B2     0.230710  
       6B1     0.230710    12A1     0.279110    13A1     0.389325  
       2A2     0.424423    14A1     0.424424     7B1     0.514286  
       7B2     0.514286    15A1     0.561125     3A2     0.611016  
      16A1     0.611017     8B2     0.734632     8B1     0.734632  
      17A1     0.735288     9B1     0.854616     9B2     0.854616  
      18A1     1.144497    19A1     1.167252    10B2     1.557286  
      10B1     1.557286     4A2     1.571264    20A1     1.571267  
      11B2     1.599895    11B1     1.599895    21A1     1.658301  
      12B2     1.675873    12B1     1.675873    22A1     1.784646  
      23A1     1.966507    24A1     2.022030     5A2     2.022068  
      13B2     2.033288    13B1     2.033288    25A1     2.064487  
       6A2     2.364659    26A1     2.364706    14B2     2.429807  
      14B1     2.429807    27A1     2.778038    15B2     3.388285  
      15B1     3.388285    28A1     3.680920    29A1     4.147134  
      16B1     4.585082    16B2     4.585082    30A1     4.596676  
       7A2     4.596764    17B2     4.659704    17B1     4.659704  
      31A1     4.850463    32A1     5.391680     8A2     5.391790  
      18B1     5.392390    18B2     5.392390     9A2     5.392896  
      33A1     5.392983    19B2     5.394262    19B1     5.394262  
      34A1     5.456195    35A1     6.860617    10A2     6.860654  
      20B1     6.878429    20B2     6.878429    21B2     6.882317  
      21B1     6.882317    36A1     6.990491    37A1     8.376224  
      11A2     8.376270    22B2     8.399684    22B1     8.399684  
      38A1     8.583386    39A1    32.822216    40A1    54.806199  
      41A1   110.544670  

    Final Occupation by Irrep:
             A1    A2    B1    B2 
    DOCC [     7,    1,    3,    3 ]

  @DF-RKS Final Energy:  -246.48830092479767

   => Energetics <=

    Nuclear Repulsion Energy =             45.7739123741106511
    One-Electron Energy =                -492.3432005032267966
    Two-Electron Energy =                 214.0382116148256557
    DFT Exchange-Correlation Energy =     -13.9572090205071753
    Empirical Dispersion Energy =          -0.0000153900000000
    VV10 Nonlocal Energy =                  0.0000000000000000
    Total Energy =                       -246.4883009247976702

Computation Completed


Properties will be evaluated at   0.000000,   0.000000,   0.000000 [a0]

Properties computed using the SCF density matrix

  Nuclear Dipole Moment: [e a0]
     X:     0.0000      Y:     0.0000      Z:   -17.8378

  Electronic Dipole Moment: [e a0]
     X:     0.0000      Y:     0.0000      Z:    20.1353

  Dipole Moment: [e a0]
     X:     0.0000      Y:     0.0000      Z:     2.2975     Total:     2.2975

  Dipole Moment: [D]
     X:     0.0000      Y:     0.0000      Z:     5.8396     Total:     5.8396


*** tstop() called on bp1-compute00116.data.bp.acrc.priv at Fri Oct 29 08:36:12 2021
Module time:
	user time   =      57.06 seconds =       0.95 minutes
	system time =       2.70 seconds =       0.04 minutes
	total time  =          4 seconds =       0.07 minutes
Total time:
	user time   =      57.06 seconds =       0.95 minutes
	system time =       2.70 seconds =       0.04 minutes
	total time  =          4 seconds =       0.07 minutes

*** tstart() called on bp1-compute00116.data.bp.acrc.priv
*** at Fri Oct 29 08:36:12 2021


         ------------------------------------------------------------
                                   SCF GRAD                          
                          Rob Parrish, Justin Turney,                
                       Andy Simmonett, and Alex Sokolov              
         ------------------------------------------------------------

  ==> Geometry <==

    Molecular point group: c2v
    Full point group: C_inf_v

    Geometry (in Angstrom), charge = 0, multiplicity = 1:

       Center              X                  Y                   Z               Mass       
    ------------   -----------------  -----------------  -----------------  -----------------
         AG           0.000000000000     0.000000000000     0.298303619952   106.905091600000
         F            0.000000000000     0.000000000000    -1.678571380048    18.998403162730

  Nuclear repulsion =   45.773912374110651

  ==> Basis Set <==

  Basis Set: DEF2-TZVPPD
    Blend: DEF2-TZVPPD
    Number of shells: 30
    Number of basis function: 96
    Number of Cartesian functions: 117
    Spherical Harmonics?: true
    Max angular momentum: 4

  Core potential: DEF2-TZVPPD
    Number of shells: 4
    Number of ECP primitives: 14
    Number of ECP core electrons: 28
    Max angular momentum: 3

  ==> DFJKGrad: Density-Fitted SCF Gradients <==

    Gradient:                    1
    J tasked:                  Yes
    K tasked:                  Yes
    wK tasked:                  No
    OpenMP threads:             24
    Integrals threads:          24
    Memory [MiB]:           102996
    Schwarz Cutoff:          0E+00
    Fitting Condition:       1E-10

   => Auxiliary Basis Set <=

  Basis Set: (DEF2-TZVPPD AUX)
    Blend: DEF2-TZVPP-JKFIT
    Number of shells: 74
    Number of basis function: 332
    Number of Cartesian functions: 477
    Spherical Harmonics?: true
    Max angular momentum: 6

  ==> DFT Potential <==

   => Composite Functional: MN15-D3BJ <= 

   MN15 Hybrid Meta-GGA Exchange-Correlation Functional

    H. S. Yu, X. He, S. L. Li, and D. G. Truhlar, Chem. Sci. 7, 5032-5051, 2016


    Deriv               =              1
    GGA                 =           TRUE
    Meta                =           TRUE

    Exchange Hybrid     =           TRUE
    MP2 Hybrid          =          FALSE

   => Exchange Functionals <=

    1.0000   XC_HYB_MGGA_X_MN15

   => Exact (HF) Exchange <=

    0.4400               HF 

   => Correlation Functionals <=

    1.0000   XC_MGGA_C_MN15

   => Molecular Quadrature <=

    Radial Scheme          =       TREUTLER
    Pruning Scheme         =           FLAT
    Nuclear Scheme         =       TREUTLER

    BS radius alpha        =              1
    Pruning alpha          =              1
    Radial Points          =             75
    Spherical Points       =            302
    Total Points           =          45055
    Total Blocks           =            425
    Max Points             =            254
    Max Functions          =             95


  -Total Gradient:
     Atom            X                  Y                   Z
    ------   -----------------  -----------------  -----------------
       1        0.000000000000     0.000000000000    -0.113721637043
       2        0.000000000000    -0.000000000000     0.113792040591


*** tstop() called on bp1-compute00116.data.bp.acrc.priv at Fri Oct 29 08:36:17 2021
Module time:
	user time   =      35.14 seconds =       0.59 minutes
	system time =       2.69 seconds =       0.04 minutes
	total time  =          5 seconds =       0.08 minutes
Total time:
	user time   =      93.10 seconds =       1.55 minutes
	system time =       5.46 seconds =       0.09 minutes
	total time  =          9 seconds =       0.15 minutes


  ==> Adding ECP gradient terms (computed numerically) <==

  -ECP Gradient:
     Atom            X                  Y                   Z
    ------   -----------------  -----------------  -----------------
       1        0.000000000000    -0.000000000000     0.114374772560
       2        0.000000000000    -0.000000000000    -0.114374772557


  -Total Gradient:
     Atom            X                  Y                   Z
    ------   -----------------  -----------------  -----------------
       1        0.000000000000    -0.000000000000     0.000653135517
       2        0.000000000000    -0.000000000000    -0.000582731966


			-----------------------------------------
			 OPTKING 2.0: for geometry optimizations 
			  - R.A. King,  Bethel University        
			-----------------------------------------
	At level 1: Red. Int., RFO, no backsteps, dynamic trust

	Internal coordinates to be generated automatically.
	Detected frag 1 with atoms:  1 2
	---Fragment 1 Bond Connectivity---
	 1 : 2
	 2 : 1

	---Fragment 1 Geometry and Gradient---
	 AG          0.0000000000        0.0000000000        0.5637121439
	 F           0.0000000000        0.0000000000       -3.1720401903
	             0.0000000000       -0.0000000000        0.0006531355
	             0.0000000000       -0.0000000000       -0.0005827320

	Previous optimization step data not found.  Starting new optimization.

	---Fragment 1 Intrafragment Coordinates---
	 - Coordinate -           - BOHR/RAD -       - ANG/DEG -
	 R(1,2)           =         3.735752	       1.976875

	Current energy   :      -246.4883009248

	Generating empirical Hessian (Schlegel '84) for each fragment.
	Taking RFO optimization step.
	Going to follow RFO solution 1.
	Using RFO vector 1.
	Norm of target step-size    0.00165
	Projected energy change by RFO approximation:         0.0000003448

	Back-transformation to cartesian coordinates...
	Successfully converged to displaced geometry.

	--- Internal Coordinate Step in ANG or DEG, aJ/ANG or AJ/DEG ---
	 ---------------------------------------------------------------------------
	   Coordinate                Previous        Force       Change         New 
	   ----------                --------       ------       ------       ------
	    1 R(1,2)          =      1.976875    -0.005091    -0.000875     1.976000
	 ---------------------------------------------------------------------------
	Successfully symmetrized geometry.

  ==> Convergence Check <==

  Measures of convergence in internal coordinates in au.
  Criteria marked as inactive (o), active & met (*), and active & unmet ( ).
  --------------------------------------------------------------------------------------------- ~
   Step     Total Energy     Delta E     MAX Force     RMS Force      MAX Disp      RMS Disp    ~
  --------------------------------------------------------------------------------------------- ~
    Convergence Criteria    1.00e-06 *    3.00e-04 *             o    1.20e-03 *             o  ~
  --------------------------------------------------------------------------------------------- ~
      1    -246.48830092   -2.46e+02      6.18e-04      6.18e-04 o    1.65e-03      1.65e-03 o  ~
  ---------------------------------------------------------------------------------------------

	Writing optimization data to binary file.
	Structure for next step:
	Cartesian Geometry (in Angstrom)
	   AG     0.0000000000   0.0000000000   0.2978662403
	    F     0.0000000000   0.0000000000  -1.6781339949
			--------------------------
			 OPTKING Finished Execution 
			--------------------------

    Structure for next step:
    Molecular point group: c2v
    Full point group: C_inf_v

    Geometry (in Angstrom), charge = 0, multiplicity = 1:

    AG           0.000000000000     0.000000000000     0.298171622135
    F            0.000000000000     0.000000000000    -1.677828620849

gradient() will perform analytic gradient computation.

*** tstart() called on bp1-compute00116.data.bp.acrc.priv
*** at Fri Oct 29 08:36:43 2021

   => Loading Basis Set <=

    Name: DEF2-TZVPPD
    Role: ORBITAL
    Keyword: BASIS
    atoms 1 entry AG         line  2174 (ECP: line  3646) file /work/zw18965/.conda/envs/p4env/share/psi4/basis/def2-tzvppd.gbs 
    atoms 2 entry F          line   257 file /work/zw18965/.conda/envs/p4env/share/psi4/basis/def2-tzvppd.gbs 

    !!!  WARNING: ECP capability is in beta. Please check occupations closely.  !!!


         ---------------------------------------------------------
                                   SCF
               by Justin Turney, Rob Parrish, Andy Simmonett
                          and Daniel G. A. Smith
                              RKS Reference
                       24 Threads, 137329 MiB Core
         ---------------------------------------------------------

  ==> Geometry <==

    Molecular point group: c2v
    Full point group: C_inf_v

    Geometry (in Angstrom), charge = 0, multiplicity = 1:

       Center              X                  Y                   Z               Mass       
    ------------   -----------------  -----------------  -----------------  -----------------
         AG           0.000000000000     0.000000000000     0.298171622135   106.905091600000
         F            0.000000000000     0.000000000000    -1.677828620849    18.998403162730

  Running in c2v symmetry.

  Rotational constants: A = ************  B =      0.26764  C =      0.26764 [cm^-1]
  Rotational constants: A = ************  B =   8023.53050  C =   8023.53050 [MHz]
  Nuclear repulsion =   45.794176061385087

  Charge       = 0
  Multiplicity = 1
  Electrons    = 28
  Nalpha       = 14
  Nbeta        = 14

  ==> Algorithm <==

  SCF Algorithm Type is DF.
  DIIS enabled.
  MOM disabled.
  Fractional occupation disabled.
  Guess Type is READ.
  Energy threshold   = 1.00e-08
  Density threshold  = 1.00e-08
  Integral threshold = 0.00e+00

  ==> Primary Basis <==

  Basis Set: DEF2-TZVPPD
    Blend: DEF2-TZVPPD
    Number of shells: 30
    Number of basis function: 96
    Number of Cartesian functions: 117
    Spherical Harmonics?: true
    Max angular momentum: 4

  Core potential: DEF2-TZVPPD
    Number of shells: 4
    Number of ECP primitives: 14
    Number of ECP core electrons: 28
    Max angular momentum: 3

  ==> DFT Potential <==

   => Composite Functional: MN15-D3BJ <= 

   MN15 Hybrid Meta-GGA Exchange-Correlation Functional

    H. S. Yu, X. He, S. L. Li, and D. G. Truhlar, Chem. Sci. 7, 5032-5051, 2016


    Deriv               =              1
    GGA                 =           TRUE
    Meta                =           TRUE

    Exchange Hybrid     =           TRUE
    MP2 Hybrid          =          FALSE

   => Exchange Functionals <=

    1.0000   XC_HYB_MGGA_X_MN15

   => Exact (HF) Exchange <=

    0.4400               HF 

   => Correlation Functionals <=

    1.0000   XC_MGGA_C_MN15

   => Molecular Quadrature <=

    Radial Scheme          =       TREUTLER
    Pruning Scheme         =           FLAT
    Nuclear Scheme         =       TREUTLER

    BS radius alpha        =              1
    Pruning alpha          =              1
    Radial Points          =             75
    Spherical Points       =            302
    Total Points           =          45055
    Total Blocks           =            425
    Max Points             =            254
    Max Functions          =             95

   => MN15-D3(BJ): Empirical Dispersion <=

    Grimme's -D3 (BJ-damping) Dispersion Correction
    Grimme S.; Ehrlich S.; Goerigk L. (2011), J. Comput. Chem., 32: 1456
    Parametrisation from:    L. Goerigk, A. Hansen, C. Bauer, S. Ehrlich, A. Najibi, S. Grimme, Phys. Chem. Chem. Phys. 19, 32184-32215, 2017

        s6 =       1.000000
        s8 =       2.097100
        a1 =       0.786200
        a2 =       7.592300

   => Loading Basis Set <=

    Name: (DEF2-TZVPPD AUX)
    Role: JKFIT
    Keyword: DF_BASIS_SCF
    atoms 1 entry AG         line  4369 file /work/zw18965/.conda/envs/p4env/share/psi4/basis/def2-tzvpp-jkfit.gbs 
    atoms 2 entry F          line   383 file /work/zw18965/.conda/envs/p4env/share/psi4/basis/def2-tzvpp-jkfit.gbs 

   => Loading Basis Set <=

    Name: DEF2-TZVPPD
    Role: ORBITAL
    Keyword: BASIS
    atoms 1 entry AG         line  2174 (ECP: line  3646) file /work/zw18965/.conda/envs/p4env/share/psi4/basis/def2-tzvppd.gbs 
    atoms 2 entry F          line   257 file /work/zw18965/.conda/envs/p4env/share/psi4/basis/def2-tzvppd.gbs 

    !!!  WARNING: ECP capability is in beta. Please check occupations closely.  !!!

  Reading orbitals from file 180, no projection.

  ==> Pre-Iterations <==

   -------------------------------------------------------
    Irrep   Nso     Nmo     Nalpha   Nbeta   Ndocc  Nsocc
   -------------------------------------------------------
     A1        41      41       0       0       0       0
     A2        11      11       0       0       0       0
     B1        22      22       0       0       0       0
     B2        22      22       0       0       0       0
   -------------------------------------------------------
    Total      96      96      14      14      14       0
   -------------------------------------------------------

  ==> Integral Setup <==

  DFHelper Memory: AOs need 0.028 GiB; user supplied 100.320 GiB. Using in-core AOs.

  ==> MemDFJK: Density-Fitted J/K Matrices <==

    J tasked:                   Yes
    K tasked:                   Yes
    wK tasked:                   No
    OpenMP threads:              24
    Memory [MiB]:            102727
    Algorithm:                 Core
    Schwarz Cutoff:           1E-12
    Mask sparsity (%):       0.4557
    Fitting Condition:        1E-10

   => Auxiliary Basis Set <=

  Basis Set: (DEF2-TZVPPD AUX)
    Blend: DEF2-TZVPP-JKFIT
    Number of shells: 74
    Number of basis function: 332
    Number of Cartesian functions: 477
    Spherical Harmonics?: true
    Max angular momentum: 6

  Cached 100.0% of DFT collocation blocks in 0.263 [GiB].

  Minimum eigenvalue in the overlap matrix is 3.3852975797E-03.
  Using Symmetric Orthogonalization.

  SCF Guess: Orbitals guess was supplied from a previous computation.

  ==> Iterations <==

                           Total Energy        Delta E     RMS |[F,P]|

   @DF-RKS iter   0:  -246.48828497104824   -2.46488e+02   3.11600e-05 
   @DF-RKS iter   1:  -246.48830170215297   -1.67311e-05   3.73236e-06 DIIS
   @DF-RKS iter   2:  -246.48830168838487    1.37681e-08   6.04734e-06 DIIS
   @DF-RKS iter   3:  -246.48830171681269   -2.84278e-08   6.90193e-07 DIIS
   @DF-RKS iter   4:  -246.48830171740582   -5.93133e-10   3.15375e-07 DIIS
   @DF-RKS iter   5:  -246.48830171762333   -2.17511e-10   1.81329e-07 DIIS
   @DF-RKS iter   6:  -246.48830171770186   -7.85292e-11   2.75657e-08 DIIS
   @DF-RKS iter   7:  -246.48830171770439   -2.52953e-12   1.11236e-08 DIIS
   @DF-RKS iter   8:  -246.48830171770470   -3.12639e-13   2.56174e-09 DIIS
  Energy and wave function converged.


  ==> Post-Iterations <==

    Orbital Energies [Eh]
    ---------------------

    Doubly Occupied:                                                      

       1A1   -24.158689     2A1    -3.679595     1B1    -2.331226  
       1B2    -2.331226     3A1    -2.328375     4A1    -1.064394  
       5A1    -0.447584     2B1    -0.425408     2B2    -0.425408  
       1A2    -0.407115     6A1    -0.407107     3B1    -0.338303  
       3B2    -0.338303     7A1    -0.330230  

    Virtual:                                                              

       8A1    -0.093183     4B2     0.032293     4B1     0.032293  
       9A1     0.079892    10A1     0.131281    11A1     0.200183  
       5B2     0.207968     5B1     0.207968     6B1     0.230732  
       6B2     0.230732    12A1     0.279177    13A1     0.389413  
       2A2     0.424433    14A1     0.424434     7B2     0.514365  
       7B1     0.514365    15A1     0.561080     3A2     0.611002  
      16A1     0.611003     8B2     0.734600     8B1     0.734600  
      17A1     0.735312     9B2     0.854668     9B1     0.854668  
      18A1     1.144460    19A1     1.167486    10B1     1.557334  
      10B2     1.557334     4A2     1.571333    20A1     1.571337  
      11B1     1.599913    11B2     1.599913    21A1     1.658306  
      12B2     1.675934    12B1     1.675934    22A1     1.784394  
      23A1     1.966703    24A1     2.022058     5A2     2.022096  
      13B2     2.033146    13B1     2.033146    25A1     2.064411  
       6A2     2.364560    26A1     2.364607    14B2     2.429989  
      14B1     2.429989    27A1     2.779101    15B1     3.388242  
      15B2     3.388242    28A1     3.681141    29A1     4.146996  
      16B2     4.585115    16B1     4.585115    30A1     4.596724  
       7A2     4.596811    17B2     4.659844    17B1     4.659844  
      31A1     4.850977    32A1     5.391707     8A2     5.391817  
      18B2     5.392426    18B1     5.392426     9A2     5.392940  
      33A1     5.393026    19B2     5.394296    19B1     5.394296  
      34A1     5.456728    35A1     6.860499    10A2     6.860537  
      20B2     6.878315    20B1     6.878315    21B2     6.882396  
      21B1     6.882396    36A1     6.990867    37A1     8.376123  
      11A2     8.376169    22B1     8.399723    22B2     8.399723  
      38A1     8.584137    39A1    32.822324    40A1    54.806321  
      41A1   110.544717  

    Final Occupation by Irrep:
             A1    A2    B1    B2 
    DOCC [     7,    1,    3,    3 ]

  @DF-RKS Final Energy:  -246.48830171770470

   => Energetics <=

    Nuclear Repulsion Energy =             45.7941760613850875
    One-Electron Energy =                -492.3830700628035402
    Two-Electron Energy =                 214.0578937712837444
    DFT Exchange-Correlation Energy =     -13.9572860975700053
    Empirical Dispersion Energy =          -0.0000153900000000
    VV10 Nonlocal Energy =                  0.0000000000000000
    Total Energy =                       -246.4883017177047009

Computation Completed


Properties will be evaluated at   0.000000,   0.000000,   0.000000 [a0]

Properties computed using the SCF density matrix

  Nuclear Dipole Moment: [e a0]
     X:     0.0000      Y:     0.0000      Z:   -17.8299

  Electronic Dipole Moment: [e a0]
     X:     0.0000      Y:     0.0000      Z:    20.1258

  Dipole Moment: [e a0]
     X:     0.0000      Y:     0.0000      Z:     2.2959     Total:     2.2959

  Dipole Moment: [D]
     X:     0.0000      Y:     0.0000      Z:     5.8355     Total:     5.8355


*** tstop() called on bp1-compute00116.data.bp.acrc.priv at Fri Oct 29 08:36:45 2021
Module time:
	user time   =      35.39 seconds =       0.59 minutes
	system time =       1.39 seconds =       0.02 minutes
	total time  =          2 seconds =       0.03 minutes
Total time:
	user time   =     388.33 seconds =       6.47 minutes
	system time =      18.28 seconds =       0.30 minutes
	total time  =         37 seconds =       0.62 minutes

*** tstart() called on bp1-compute00116.data.bp.acrc.priv
*** at Fri Oct 29 08:36:45 2021


         ------------------------------------------------------------
                                   SCF GRAD                          
                          Rob Parrish, Justin Turney,                
                       Andy Simmonett, and Alex Sokolov              
         ------------------------------------------------------------

  ==> Geometry <==

    Molecular point group: c2v
    Full point group: C_inf_v

    Geometry (in Angstrom), charge = 0, multiplicity = 1:

       Center              X                  Y                   Z               Mass       
    ------------   -----------------  -----------------  -----------------  -----------------
         AG           0.000000000000     0.000000000000     0.298171622135   106.905091600000
         F            0.000000000000     0.000000000000    -1.677828620849    18.998403162730

  Nuclear repulsion =   45.794176061385087

  ==> Basis Set <==

  Basis Set: DEF2-TZVPPD
    Blend: DEF2-TZVPPD
    Number of shells: 30
    Number of basis function: 96
    Number of Cartesian functions: 117
    Spherical Harmonics?: true
    Max angular momentum: 4

  Core potential: DEF2-TZVPPD
    Number of shells: 4
    Number of ECP primitives: 14
    Number of ECP core electrons: 28
    Max angular momentum: 3

  ==> DFJKGrad: Density-Fitted SCF Gradients <==

    Gradient:                    1
    J tasked:                  Yes
    K tasked:                  Yes
    wK tasked:                  No
    OpenMP threads:             24
    Integrals threads:          24
    Memory [MiB]:           102996
    Schwarz Cutoff:          0E+00
    Fitting Condition:       1E-10

   => Auxiliary Basis Set <=

  Basis Set: (DEF2-TZVPPD AUX)
    Blend: DEF2-TZVPP-JKFIT
    Number of shells: 74
    Number of basis function: 332
    Number of Cartesian functions: 477
    Spherical Harmonics?: true
    Max angular momentum: 6

  ==> DFT Potential <==

   => Composite Functional: MN15-D3BJ <= 

   MN15 Hybrid Meta-GGA Exchange-Correlation Functional

    H. S. Yu, X. He, S. L. Li, and D. G. Truhlar, Chem. Sci. 7, 5032-5051, 2016


    Deriv               =              1
    GGA                 =           TRUE
    Meta                =           TRUE

    Exchange Hybrid     =           TRUE
    MP2 Hybrid          =          FALSE

   => Exchange Functionals <=

    1.0000   XC_HYB_MGGA_X_MN15

   => Exact (HF) Exchange <=

    0.4400               HF 

   => Correlation Functionals <=

    1.0000   XC_MGGA_C_MN15

   => Molecular Quadrature <=

    Radial Scheme          =       TREUTLER
    Pruning Scheme         =           FLAT
    Nuclear Scheme         =       TREUTLER

    BS radius alpha        =              1
    Pruning alpha          =              1
    Radial Points          =             75
    Spherical Points       =            302
    Total Points           =          45055
    Total Blocks           =            425
    Max Points             =            254
    Max Functions          =             95


  -Total Gradient:
     Atom            X                  Y                   Z
    ------   -----------------  -----------------  -----------------
       1        0.000000000000     0.000000000000    -0.114230950497
       2        0.000000000000    -0.000000000000     0.114301476743


*** tstop() called on bp1-compute00116.data.bp.acrc.priv at Fri Oct 29 08:36:49 2021
Module time:
	user time   =      33.68 seconds =       0.56 minutes
	system time =       2.38 seconds =       0.04 minutes
	total time  =          4 seconds =       0.07 minutes
Total time:
	user time   =     422.83 seconds =       7.05 minutes
	system time =      20.72 seconds =       0.35 minutes
	total time  =         41 seconds =       0.68 minutes


  ==> Adding ECP gradient terms (computed numerically) <==

  -ECP Gradient:
     Atom            X                  Y                   Z
    ------   -----------------  -----------------  -----------------
       1        0.000000000000    -0.000000000000     0.114623850698
       2        0.000000000000    -0.000000000000    -0.114623850713


  -Total Gradient:
     Atom            X                  Y                   Z
    ------   -----------------  -----------------  -----------------
       1        0.000000000000    -0.000000000000     0.000392900202
       2        0.000000000000    -0.000000000000    -0.000322373971


			-----------------------------------------
			 OPTKING 2.0: for geometry optimizations 
			  - R.A. King,  Bethel University        
			-----------------------------------------
	At level 1: Red. Int., RFO, no backsteps, dynamic trust

	Previous internal coordinate definitions found.
	---Fragment 1 Geometry and Gradient---
	 AG          0.0000000000        0.0000000000        0.5634627042
	 F           0.0000000000        0.0000000000       -3.1706365789
	             0.0000000000       -0.0000000000        0.0003929002
	             0.0000000000       -0.0000000000       -0.0003223740

	---Fragment 1 Intrafragment Coordinates---
	 - Coordinate -           - BOHR/RAD -       - ANG/DEG -
	 R(1,2)           =         3.734099	       1.976000

	Current energy   :      -246.4883017177

	Energy change for the previous step:
		Projected    :         0.0000003448
		Actual       :        -0.0000007929

	Performing BFGS update.
	Previous computed or guess Hessian on step 1.
	Steps to be used in Hessian update: 1
	Taking RFO optimization step.
	Going to follow RFO solution 1.
	Using RFO vector 1.
	Norm of target step-size    0.00227
	Projected energy change by RFO approximation:         0.0000017669

	Back-transformation to cartesian coordinates...
	Successfully converged to displaced geometry.

	--- Internal Coordinate Step in ANG or DEG, aJ/ANG or AJ/DEG ---
	 ---------------------------------------------------------------------------
	   Coordinate                Previous        Force       Change         New 
	   ----------                --------       ------       ------       ------
	    1 R(1,2)          =      1.976000    -0.002946    -0.001202     1.974798
	 ---------------------------------------------------------------------------
	Successfully symmetrized geometry.

  ==> Convergence Check <==

  Measures of convergence in internal coordinates in au.
  Criteria marked as inactive (o), active & met (*), and active & unmet ( ).
  ---------------------------------------------------------------------------------------------
   Step     Total Energy     Delta E     MAX Force     RMS Force      MAX Disp      RMS Disp   
  ---------------------------------------------------------------------------------------------
    Convergence Criteria    1.00e-06 *    3.00e-04 *             o    1.20e-03 *             o
  ---------------------------------------------------------------------------------------------
      2    -246.48830172   -7.93e-07 *    3.58e-04      3.58e-04 o    2.27e-03      2.27e-03 o  ~
  ---------------------------------------------------------------------------------------------

	Writing optimization data to binary file.
	Structure for next step:
	Cartesian Geometry (in Angstrom)
	   AG     0.0000000000   0.0000000000   0.2975706837
	    F     0.0000000000   0.0000000000  -1.6772276770
			--------------------------
			 OPTKING Finished Execution 
			--------------------------

    Structure for next step:
    Molecular point group: c2v
    Full point group: C_inf_v

    Geometry (in Angstrom), charge = 0, multiplicity = 1:

    AG           0.000000000000     0.000000000000     0.297990263404
    F            0.000000000000     0.000000000000    -1.676808104987

gradient() will perform analytic gradient computation.

*** tstart() called on bp1-compute00116.data.bp.acrc.priv
*** at Fri Oct 29 08:37:14 2021

   => Loading Basis Set <=

    Name: DEF2-TZVPPD
    Role: ORBITAL
    Keyword: BASIS
    atoms 1 entry AG         line  2174 (ECP: line  3646) file /work/zw18965/.conda/envs/p4env/share/psi4/basis/def2-tzvppd.gbs 
    atoms 2 entry F          line   257 file /work/zw18965/.conda/envs/p4env/share/psi4/basis/def2-tzvppd.gbs 

    !!!  WARNING: ECP capability is in beta. Please check occupations closely.  !!!


         ---------------------------------------------------------
                                   SCF
               by Justin Turney, Rob Parrish, Andy Simmonett
                          and Daniel G. A. Smith
                              RKS Reference
                       24 Threads, 137329 MiB Core
         ---------------------------------------------------------

  ==> Geometry <==

    Molecular point group: c2v
    Full point group: C_inf_v

    Geometry (in Angstrom), charge = 0, multiplicity = 1:

       Center              X                  Y                   Z               Mass       
    ------------   -----------------  -----------------  -----------------  -----------------
         AG           0.000000000000     0.000000000000     0.297990263404   106.905091600000
         F            0.000000000000     0.000000000000    -1.676808104987    18.998403162730

  Running in c2v symmetry.

  Rotational constants: A = ************  B =      0.26796  C =      0.26796 [cm^-1]
  Rotational constants: A = ************  B =   8033.29981  C =   8033.29981 [MHz]
  Nuclear repulsion =   45.822046682331397

  Charge       = 0
  Multiplicity = 1
  Electrons    = 28
  Nalpha       = 14
  Nbeta        = 14

  ==> Algorithm <==

  SCF Algorithm Type is DF.
  DIIS enabled.
  MOM disabled.
  Fractional occupation disabled.
  Guess Type is READ.
  Energy threshold   = 1.00e-08
  Density threshold  = 1.00e-08
  Integral threshold = 0.00e+00

  ==> Primary Basis <==

  Basis Set: DEF2-TZVPPD
    Blend: DEF2-TZVPPD
    Number of shells: 30
    Number of basis function: 96
    Number of Cartesian functions: 117
    Spherical Harmonics?: true
    Max angular momentum: 4

  Core potential: DEF2-TZVPPD
    Number of shells: 4
    Number of ECP primitives: 14
    Number of ECP core electrons: 28
    Max angular momentum: 3

  ==> DFT Potential <==

   => Composite Functional: MN15-D3BJ <= 

   MN15 Hybrid Meta-GGA Exchange-Correlation Functional

    H. S. Yu, X. He, S. L. Li, and D. G. Truhlar, Chem. Sci. 7, 5032-5051, 2016


    Deriv               =              1
    GGA                 =           TRUE
    Meta                =           TRUE

    Exchange Hybrid     =           TRUE
    MP2 Hybrid          =          FALSE

   => Exchange Functionals <=

    1.0000   XC_HYB_MGGA_X_MN15

   => Exact (HF) Exchange <=

    0.4400               HF 

   => Correlation Functionals <=

    1.0000   XC_MGGA_C_MN15

   => Molecular Quadrature <=

    Radial Scheme          =       TREUTLER
    Pruning Scheme         =           FLAT
    Nuclear Scheme         =       TREUTLER

    BS radius alpha        =              1
    Pruning alpha          =              1
    Radial Points          =             75
    Spherical Points       =            302
    Total Points           =          45055
    Total Blocks           =            425
    Max Points             =            254
    Max Functions          =             95

   => MN15-D3(BJ): Empirical Dispersion <=

    Grimme's -D3 (BJ-damping) Dispersion Correction
    Grimme S.; Ehrlich S.; Goerigk L. (2011), J. Comput. Chem., 32: 1456
    Parametrisation from:    L. Goerigk, A. Hansen, C. Bauer, S. Ehrlich, A. Najibi, S. Grimme, Phys. Chem. Chem. Phys. 19, 32184-32215, 2017

        s6 =       1.000000
        s8 =       2.097100
        a1 =       0.786200
        a2 =       7.592300

   => Loading Basis Set <=

    Name: (DEF2-TZVPPD AUX)
    Role: JKFIT
    Keyword: DF_BASIS_SCF
    atoms 1 entry AG         line  4369 file /work/zw18965/.conda/envs/p4env/share/psi4/basis/def2-tzvpp-jkfit.gbs 
    atoms 2 entry F          line   383 file /work/zw18965/.conda/envs/p4env/share/psi4/basis/def2-tzvpp-jkfit.gbs 

   => Loading Basis Set <=

    Name: DEF2-TZVPPD
    Role: ORBITAL
    Keyword: BASIS
    atoms 1 entry AG         line  2174 (ECP: line  3646) file /work/zw18965/.conda/envs/p4env/share/psi4/basis/def2-tzvppd.gbs 
    atoms 2 entry F          line   257 file /work/zw18965/.conda/envs/p4env/share/psi4/basis/def2-tzvppd.gbs 

    !!!  WARNING: ECP capability is in beta. Please check occupations closely.  !!!

  Reading orbitals from file 180, no projection.

  ==> Pre-Iterations <==

   -------------------------------------------------------
    Irrep   Nso     Nmo     Nalpha   Nbeta   Ndocc  Nsocc
   -------------------------------------------------------
     A1        41      41       0       0       0       0
     A2        11      11       0       0       0       0
     B1        22      22       0       0       0       0
     B2        22      22       0       0       0       0
   -------------------------------------------------------
    Total      96      96      14      14      14       0
   -------------------------------------------------------

  ==> Integral Setup <==

  DFHelper Memory: AOs need 0.028 GiB; user supplied 100.320 GiB. Using in-core AOs.

  ==> MemDFJK: Density-Fitted J/K Matrices <==

    J tasked:                   Yes
    K tasked:                   Yes
    wK tasked:                   No
    OpenMP threads:              24
    Memory [MiB]:            102727
    Algorithm:                 Core
    Schwarz Cutoff:           1E-12
    Mask sparsity (%):       0.4557
    Fitting Condition:        1E-10

   => Auxiliary Basis Set <=

  Basis Set: (DEF2-TZVPPD AUX)
    Blend: DEF2-TZVPP-JKFIT
    Number of shells: 74
    Number of basis function: 332
    Number of Cartesian functions: 477
    Spherical Harmonics?: true
    Max angular momentum: 6

  Cached 100.0% of DFT collocation blocks in 0.263 [GiB].

  Minimum eigenvalue in the overlap matrix is 3.3758743920E-03.
  Using Symmetric Orthogonalization.

  SCF Guess: Orbitals guess was supplied from a previous computation.

  ==> Iterations <==

                           Total Energy        Delta E     RMS |[F,P]|

   @DF-RKS iter   0:  -246.48827934075729   -2.46488e+02   4.29048e-05 
   @DF-RKS iter   1:  -246.48830207435029   -2.27336e-05   5.14589e-06 DIIS
   @DF-RKS iter   2:  -246.48830204810037    2.62499e-08   8.34315e-06 DIIS
   @DF-RKS iter   3:  -246.48830210221030   -5.41099e-08   9.48438e-07 DIIS
   @DF-RKS iter   4:  -246.48830210333156   -1.12126e-09   4.34295e-07 DIIS
   @DF-RKS iter   5:  -246.48830210374436   -4.12797e-10   2.49836e-07 DIIS
   @DF-RKS iter   6:  -246.48830210389386   -1.49498e-10   3.80263e-08 DIIS
   @DF-RKS iter   7:  -246.48830210389889   -5.03064e-12   1.53749e-08 DIIS
   @DF-RKS iter   8:  -246.48830210389923   -3.41061e-13   3.52128e-09 DIIS
  Energy and wave function converged.


  ==> Post-Iterations <==

    Orbital Energies [Eh]
    ---------------------

    Doubly Occupied:                                                      

       1A1   -24.158803     2A1    -3.679560     1B1    -2.331183  
       1B2    -2.331183     3A1    -2.328352     4A1    -1.064591  
       5A1    -0.447744     2B2    -0.425491     2B1    -0.425491  
       1A2    -0.407062     6A1    -0.407055     3B1    -0.338336  
       3B2    -0.338336     7A1    -0.330186  

    Virtual:                                                              

       8A1    -0.093102     4B2     0.032324     4B1     0.032324  
       9A1     0.079942    10A1     0.131307    11A1     0.200165  
       5B2     0.207957     5B1     0.207957     6B2     0.230764  
       6B1     0.230764    12A1     0.279269    13A1     0.389533  
       2A2     0.424448    14A1     0.424449     7B1     0.514472  
       7B2     0.514472    15A1     0.561019     3A2     0.610982  
      16A1     0.610983     8B2     0.734556     8B1     0.734556  
      17A1     0.735346     9B1     0.854741     9B2     0.854741  
      18A1     1.144409    19A1     1.167807    10B2     1.557399  
      10B1     1.557399     4A2     1.571429    20A1     1.571432  
      11B1     1.599936    11B2     1.599936    21A1     1.658313  
      12B1     1.676018    12B2     1.676018    22A1     1.784045  
      23A1     1.966977    24A1     2.022096     5A2     2.022135  
      13B2     2.032950    13B1     2.032950    25A1     2.064309  
       6A2     2.364423    26A1     2.364471    14B1     2.430241  
      14B2     2.430241    27A1     2.780562    15B1     3.388183  
      15B2     3.388183    28A1     3.681448    29A1     4.146806  
      16B1     4.585159    16B2     4.585159    30A1     4.596788  
       7A2     4.596876    17B1     4.660038    17B2     4.660038  
      31A1     4.851684    32A1     5.391743     8A2     5.391853  
      18B1     5.392476    18B2     5.392476     9A2     5.392999  
      33A1     5.393085    19B2     5.394342    19B1     5.394342  
      34A1     5.457464    35A1     6.860337    10A2     6.860375  
      20B2     6.878158    20B1     6.878158    21B1     6.882505  
      21B2     6.882505    36A1     6.991385    37A1     8.375984  
      11A2     8.376030    22B1     8.399779    22B2     8.399779  
      38A1     8.585171    39A1    32.822476    40A1    54.806489  
      41A1   110.544782  

    Final Occupation by Irrep:
             A1    A2    B1    B2 
    DOCC [     7,    1,    3,    3 ]

  @DF-RKS Final Energy:  -246.48830210389923

   => Energetics <=

    Nuclear Repulsion Energy =             45.8220466823313970
    One-Electron Energy =                -492.4379020816134584
    Two-Electron Energy =                 214.0849610361760540
    DFT Exchange-Correlation Energy =     -13.9573923507932331
    Empirical Dispersion Energy =          -0.0000153900000000
    VV10 Nonlocal Energy =                  0.0000000000000000
    Total Energy =                       -246.4883021038992297

Computation Completed


Properties will be evaluated at   0.000000,   0.000000,   0.000000 [a0]

Properties computed using the SCF density matrix

  Nuclear Dipole Moment: [e a0]
     X:     0.0000      Y:     0.0000      Z:   -17.8191

  Electronic Dipole Moment: [e a0]
     X:     0.0000      Y:     0.0000      Z:    20.1128

  Dipole Moment: [e a0]
     X:     0.0000      Y:     0.0000      Z:     2.2937     Total:     2.2937

  Dipole Moment: [D]
     X:     0.0000      Y:     0.0000      Z:     5.8300     Total:     5.8300


*** tstop() called on bp1-compute00116.data.bp.acrc.priv at Fri Oct 29 08:37:16 2021
Module time:
	user time   =      34.65 seconds =       0.58 minutes
	system time =       1.36 seconds =       0.02 minutes
	total time  =          2 seconds =       0.03 minutes
Total time:
	user time   =     713.92 seconds =      11.90 minutes
	system time =      32.65 seconds =       0.54 minutes
	total time  =         68 seconds =       1.13 minutes

*** tstart() called on bp1-compute00116.data.bp.acrc.priv
*** at Fri Oct 29 08:37:16 2021


         ------------------------------------------------------------
                                   SCF GRAD                          
                          Rob Parrish, Justin Turney,                
                       Andy Simmonett, and Alex Sokolov              
         ------------------------------------------------------------

  ==> Geometry <==

    Molecular point group: c2v
    Full point group: C_inf_v

    Geometry (in Angstrom), charge = 0, multiplicity = 1:

       Center              X                  Y                   Z               Mass       
    ------------   -----------------  -----------------  -----------------  -----------------
         AG           0.000000000000     0.000000000000     0.297990263404   106.905091600000
         F            0.000000000000     0.000000000000    -1.676808104987    18.998403162730

  Nuclear repulsion =   45.822046682331404

  ==> Basis Set <==

  Basis Set: DEF2-TZVPPD
    Blend: DEF2-TZVPPD
    Number of shells: 30
    Number of basis function: 96
    Number of Cartesian functions: 117
    Spherical Harmonics?: true
    Max angular momentum: 4

  Core potential: DEF2-TZVPPD
    Number of shells: 4
    Number of ECP primitives: 14
    Number of ECP core electrons: 28
    Max angular momentum: 3

  ==> DFJKGrad: Density-Fitted SCF Gradients <==

    Gradient:                    1
    J tasked:                  Yes
    K tasked:                  Yes
    wK tasked:                  No
    OpenMP threads:             24
    Integrals threads:          24
    Memory [MiB]:           102996
    Schwarz Cutoff:          0E+00
    Fitting Condition:       1E-10

   => Auxiliary Basis Set <=

  Basis Set: (DEF2-TZVPPD AUX)
    Blend: DEF2-TZVPP-JKFIT
    Number of shells: 74
    Number of basis function: 332
    Number of Cartesian functions: 477
    Spherical Harmonics?: true
    Max angular momentum: 6

  ==> DFT Potential <==

   => Composite Functional: MN15-D3BJ <= 

   MN15 Hybrid Meta-GGA Exchange-Correlation Functional

    H. S. Yu, X. He, S. L. Li, and D. G. Truhlar, Chem. Sci. 7, 5032-5051, 2016


    Deriv               =              1
    GGA                 =           TRUE
    Meta                =           TRUE

    Exchange Hybrid     =           TRUE
    MP2 Hybrid          =          FALSE

   => Exchange Functionals <=

    1.0000   XC_HYB_MGGA_X_MN15

   => Exact (HF) Exchange <=

    0.4400               HF 

   => Correlation Functionals <=

    1.0000   XC_MGGA_C_MN15

   => Molecular Quadrature <=

    Radial Scheme          =       TREUTLER
    Pruning Scheme         =           FLAT
    Nuclear Scheme         =       TREUTLER

    BS radius alpha        =              1
    Pruning alpha          =              1
    Radial Points          =             75
    Spherical Points       =            302
    Total Points           =          45055
    Total Blocks           =            425
    Max Points             =            254
    Max Functions          =             95


  -Total Gradient:
     Atom            X                  Y                   Z
    ------   -----------------  -----------------  -----------------
       1        0.000000000000     0.000000000000    -0.114933580665
       2       -0.000000000000    -0.000000000000     0.115004310612


*** tstop() called on bp1-compute00116.data.bp.acrc.priv at Fri Oct 29 08:37:21 2021
Module time:
	user time   =      33.75 seconds =       0.56 minutes
	system time =       2.45 seconds =       0.04 minutes
	total time  =          5 seconds =       0.08 minutes
Total time:
	user time   =     748.49 seconds =      12.47 minutes
	system time =      35.14 seconds =       0.59 minutes
	total time  =         73 seconds =       1.22 minutes


  ==> Adding ECP gradient terms (computed numerically) <==

  -ECP Gradient:
     Atom            X                  Y                   Z
    ------   -----------------  -----------------  -----------------
       1        0.000000000000    -0.000000000000     0.114967065349
       2        0.000000000000    -0.000000000000    -0.114967065346


  -Total Gradient:
     Atom            X                  Y                   Z
    ------   -----------------  -----------------  -----------------
       1        0.000000000000    -0.000000000000     0.000033484684
       2        0.000000000000    -0.000000000000     0.000037245265


			-----------------------------------------
			 OPTKING 2.0: for geometry optimizations 
			  - R.A. King,  Bethel University        
			-----------------------------------------
	At level 1: Red. Int., RFO, no backsteps, dynamic trust

	Previous internal coordinate definitions found.
	---Fragment 1 Geometry and Gradient---
	 AG          0.0000000000        0.0000000000        0.5631199859
	 F           0.0000000000        0.0000000000       -3.1687080834
	             0.0000000000       -0.0000000000        0.0000334847
	             0.0000000000       -0.0000000000        0.0000372453

	---Fragment 1 Intrafragment Coordinates---
	 - Coordinate -           - BOHR/RAD -       - ANG/DEG -
	 R(1,2)           =         3.731828	       1.974798

	Current energy   :      -246.4883021039

	Energy change for the previous step:
		Projected    :         0.0000017669
		Actual       :        -0.0000003862

	Performing BFGS update.
	Previous computed or guess Hessian on step 1.
	Steps to be used in Hessian update: 2 1
	Taking RFO optimization step.
	Going to follow RFO solution 1.
	Using RFO vector 1.
	Norm of target step-size    0.00001
	Projected energy change by RFO approximation:         0.0000000000

	Back-transformation to cartesian coordinates...
	Successfully converged to displaced geometry.

	--- Internal Coordinate Step in ANG or DEG, aJ/ANG or AJ/DEG ---
	 ---------------------------------------------------------------------------
	   Coordinate                Previous        Force       Change         New 
	   ----------                --------       ------       ------       ------
	    1 R(1,2)          =      1.974798     0.000015     0.000006     1.974805
	 ---------------------------------------------------------------------------
	Successfully symmetrized geometry.

  ==> Convergence Check <==

  Measures of convergence in internal coordinates in au.
  Criteria marked as inactive (o), active & met (*), and active & unmet ( ).
  ---------------------------------------------------------------------------------------------
   Step     Total Energy     Delta E     MAX Force     RMS Force      MAX Disp      RMS Disp   
  ---------------------------------------------------------------------------------------------
    Convergence Criteria    1.00e-06 *    3.00e-04 *             o    1.20e-03 *             o
  ---------------------------------------------------------------------------------------------
      3    -246.48830210   -3.86e-07 *    1.88e-06 *    1.88e-06 o    1.19e-05 *    1.19e-05 o  ~
  ---------------------------------------------------------------------------------------------


  **** Optimization is complete! (in 3 steps) ****

  ==> Optimization Summary <==

  Measures of convergence in internal coordinates in au.
  --------------------------------------------------------------------------------------------------------------- ~
   Step         Total Energy             Delta E       MAX Force       RMS Force        MAX Disp        RMS Disp  ~
  --------------------------------------------------------------------------------------------------------------- ~
      1    -246.488300924798   -246.488300924798      0.00061793      0.00061793      0.00165305      0.00165305  ~
      2    -246.488301717705     -0.000000792907      0.00035764      0.00035764      0.00227121      0.00227121  ~
      3    -246.488302103899     -0.000000386195      0.00000188      0.00000188      0.00001190      0.00001190  ~
  --------------------------------------------------------------------------------------------------------------- ~

	Writing optimization data to binary file.
	Final energy is   -246.4883021038992
	Final (previous) structure:
	Cartesian Geometry (in Angstrom)
	   AG     0.0000000000   0.0000000000   0.2979902622
	    F     0.0000000000   0.0000000000  -1.6768080984
	Saving final (previous) structure.
			--------------------------
			 OPTKING Finished Execution 
			--------------------------

    Final optimized geometry and variables:
    Molecular point group: c2v
    Full point group: C_inf_v

    Geometry (in Angstrom), charge = 0, multiplicity = 1:

    AG           0.000000000000     0.000000000000     0.297990263404
    F            0.000000000000     0.000000000000    -1.676808104987

	Removing binary optimization data file.
	Cleaning optimization helper files.
gradient() will perform analytic gradient computation.

*** tstart() called on bp1-compute00116.data.bp.acrc.priv
*** at Fri Oct 29 08:37:46 2021

   => Loading Basis Set <=

    Name: DEF2-TZVPPD
    Role: ORBITAL
    Keyword: BASIS
    atoms 1 entry AG         line  2174 (ECP: line  3646) file /work/zw18965/.conda/envs/p4env/share/psi4/basis/def2-tzvppd.gbs 
    atoms 2 entry F          line   257 file /work/zw18965/.conda/envs/p4env/share/psi4/basis/def2-tzvppd.gbs 

    !!!  WARNING: ECP capability is in beta. Please check occupations closely.  !!!


         ---------------------------------------------------------
                                   SCF
               by Justin Turney, Rob Parrish, Andy Simmonett
                          and Daniel G. A. Smith
                              RKS Reference
                       24 Threads, 137329 MiB Core
         ---------------------------------------------------------

  ==> Geometry <==

    Molecular point group: c2v
    Full point group: C_inf_v

    Geometry (in Angstrom), charge = 0, multiplicity = 1:

       Center              X                  Y                   Z               Mass       
    ------------   -----------------  -----------------  -----------------  -----------------
         AG           0.000000000000     0.000000000000     0.297990263404   106.905091600000
         F            0.000000000000     0.000000000000    -1.676808104987    18.998403162730

  Running in c2v symmetry.

  Rotational constants: A = ************  B =      0.26796  C =      0.26796 [cm^-1]
  Rotational constants: A = ************  B =   8033.29981  C =   8033.29981 [MHz]
  Nuclear repulsion =   45.822046682331404

  Charge       = 0
  Multiplicity = 1
  Electrons    = 28
  Nalpha       = 14
  Nbeta        = 14

  ==> Algorithm <==

  SCF Algorithm Type is DF.
  DIIS enabled.
  MOM disabled.
  Fractional occupation disabled.
  Guess Type is SAD.
  Energy threshold   = 1.00e-08
  Density threshold  = 1.00e-08
  Integral threshold = 0.00e+00

  ==> Primary Basis <==

  Basis Set: DEF2-TZVPPD
    Blend: DEF2-TZVPPD
    Number of shells: 30
    Number of basis function: 96
    Number of Cartesian functions: 117
    Spherical Harmonics?: true
    Max angular momentum: 4

  Core potential: DEF2-TZVPPD
    Number of shells: 4
    Number of ECP primitives: 14
    Number of ECP core electrons: 28
    Max angular momentum: 3

  ==> DFT Potential <==

   => Composite Functional: MN15-D3BJ <= 

   MN15 Hybrid Meta-GGA Exchange-Correlation Functional

    H. S. Yu, X. He, S. L. Li, and D. G. Truhlar, Chem. Sci. 7, 5032-5051, 2016


    Deriv               =              1
    GGA                 =           TRUE
    Meta                =           TRUE

    Exchange Hybrid     =           TRUE
    MP2 Hybrid          =          FALSE

   => Exchange Functionals <=

    1.0000   XC_HYB_MGGA_X_MN15

   => Exact (HF) Exchange <=

    0.4400               HF 

   => Correlation Functionals <=

    1.0000   XC_MGGA_C_MN15

   => Molecular Quadrature <=

    Radial Scheme          =       TREUTLER
    Pruning Scheme         =           FLAT
    Nuclear Scheme         =       TREUTLER

    BS radius alpha        =              1
    Pruning alpha          =              1
    Radial Points          =             75
    Spherical Points       =            302
    Total Points           =          45055
    Total Blocks           =            425
    Max Points             =            254
    Max Functions          =             95

   => MN15-D3(BJ): Empirical Dispersion <=

    Grimme's -D3 (BJ-damping) Dispersion Correction
    Grimme S.; Ehrlich S.; Goerigk L. (2011), J. Comput. Chem., 32: 1456
    Parametrisation from:    L. Goerigk, A. Hansen, C. Bauer, S. Ehrlich, A. Najibi, S. Grimme, Phys. Chem. Chem. Phys. 19, 32184-32215, 2017

        s6 =       1.000000
        s8 =       2.097100
        a1 =       0.786200
        a2 =       7.592300

   => Loading Basis Set <=

    Name: (DEF2-TZVPPD AUX)
    Role: JKFIT
    Keyword: DF_BASIS_SCF
    atoms 1 entry AG         line  4369 file /work/zw18965/.conda/envs/p4env/share/psi4/basis/def2-tzvpp-jkfit.gbs 
    atoms 2 entry F          line   383 file /work/zw18965/.conda/envs/p4env/share/psi4/basis/def2-tzvpp-jkfit.gbs 

  ==> Pre-Iterations <==

   -------------------------------------------------------
    Irrep   Nso     Nmo     Nalpha   Nbeta   Ndocc  Nsocc
   -------------------------------------------------------
     A1        41      41       0       0       0       0
     A2        11      11       0       0       0       0
     B1        22      22       0       0       0       0
     B2        22      22       0       0       0       0
   -------------------------------------------------------
    Total      96      96      14      14      14       0
   -------------------------------------------------------

  ==> Integral Setup <==

  DFHelper Memory: AOs need 0.028 GiB; user supplied 100.320 GiB. Using in-core AOs.

  ==> MemDFJK: Density-Fitted J/K Matrices <==

    J tasked:                   Yes
    K tasked:                   Yes
    wK tasked:                   No
    OpenMP threads:              24
    Memory [MiB]:            102727
    Algorithm:                 Core
    Schwarz Cutoff:           1E-12
    Mask sparsity (%):       0.4557
    Fitting Condition:        1E-10

   => Auxiliary Basis Set <=

  Basis Set: (DEF2-TZVPPD AUX)
    Blend: DEF2-TZVPP-JKFIT
    Number of shells: 74
    Number of basis function: 332
    Number of Cartesian functions: 477
    Spherical Harmonics?: true
    Max angular momentum: 6

  Cached 100.0% of DFT collocation blocks in 0.263 [GiB].

  Minimum eigenvalue in the overlap matrix is 3.3758743920E-03.
  Using Symmetric Orthogonalization.

  SCF Guess: Superposition of Atomic Densities via on-the-fly atomic UHF.

  ==> Iterations <==

                           Total Energy        Delta E     RMS |[F,P]|

   @DF-RKS iter SAD:  -245.88632310168222   -2.45886e+02   0.00000e+00 
   @DF-RKS iter   1:  -246.31160713787443   -4.25284e-01   1.33099e-02 DIIS
   @DF-RKS iter   2:  -244.10685955050008    2.20475e+00   4.64733e-02 DIIS
   @DF-RKS iter   3:  -246.48327609123061   -2.37642e+00   2.06269e-03 DIIS
   @DF-RKS iter   4:  -246.48622566123066   -2.94957e-03   1.66054e-03 DIIS
   @DF-RKS iter   5:  -246.48791023808295   -1.68458e-03   5.81047e-04 DIIS
   @DF-RKS iter   6:  -246.48823295477561   -3.22717e-04   2.32336e-04 DIIS
   @DF-RKS iter   7:  -246.48829030029185   -5.73455e-05   6.44895e-05 DIIS
   @DF-RKS iter   8:  -246.48830103188646   -1.07316e-05   1.17649e-05 DIIS
   @DF-RKS iter   9:  -246.48830204870049   -1.01681e-06   2.82542e-06 DIIS
   @DF-RKS iter  10:  -246.48830210293605   -5.42356e-08   5.22700e-07 DIIS
   @DF-RKS iter  11:  -246.48830210385128   -9.15236e-10   2.11870e-07 DIIS
   @DF-RKS iter  12:  -246.48830210389903   -4.77485e-11   2.41257e-08 DIIS
   @DF-RKS iter  13:  -246.48830210389985   -8.24230e-13   3.41386e-09 DIIS
  Energy and wave function converged.


  ==> Post-Iterations <==

    Orbital Energies [Eh]
    ---------------------

    Doubly Occupied:                                                      

       1A1   -24.158803     2A1    -3.679560     1B1    -2.331183  
       1B2    -2.331183     3A1    -2.328352     4A1    -1.064591  
       5A1    -0.447744     2B2    -0.425491     2B1    -0.425491  
       1A2    -0.407062     6A1    -0.407055     3B1    -0.338336  
       3B2    -0.338336     7A1    -0.330186  

    Virtual:                                                              

       8A1    -0.093102     4B1     0.032324     4B2     0.032324  
       9A1     0.079942    10A1     0.131307    11A1     0.200165  
       5B2     0.207957     5B1     0.207957     6B2     0.230764  
       6B1     0.230764    12A1     0.279269    13A1     0.389533  
       2A2     0.424448    14A1     0.424449     7B1     0.514472  
       7B2     0.514472    15A1     0.561019     3A2     0.610982  
      16A1     0.610983     8B2     0.734556     8B1     0.734556  
      17A1     0.735346     9B2     0.854741     9B1     0.854741  
      18A1     1.144409    19A1     1.167807    10B2     1.557399  
      10B1     1.557399     4A2     1.571429    20A1     1.571432  
      11B2     1.599936    11B1     1.599936    21A1     1.658313  
      12B2     1.676018    12B1     1.676018    22A1     1.784045  
      23A1     1.966977    24A1     2.022096     5A2     2.022135  
      13B2     2.032950    13B1     2.032950    25A1     2.064309  
       6A2     2.364423    26A1     2.364471    14B2     2.430241  
      14B1     2.430241    27A1     2.780562    15B2     3.388183  
      15B1     3.388183    28A1     3.681448    29A1     4.146806  
      16B1     4.585159    16B2     4.585159    30A1     4.596788  
       7A2     4.596876    17B1     4.660038    17B2     4.660038  
      31A1     4.851684    32A1     5.391743     8A2     5.391853  
      18B1     5.392476    18B2     5.392476     9A2     5.392999  
      33A1     5.393085    19B2     5.394342    19B1     5.394342  
      34A1     5.457464    35A1     6.860337    10A2     6.860375  
      20B1     6.878158    20B2     6.878158    21B2     6.882505  
      21B1     6.882505    36A1     6.991385    37A1     8.375984  
      11A2     8.376030    22B2     8.399779    22B1     8.399779  
      38A1     8.585171    39A1    32.822476    40A1    54.806489  
      41A1   110.544782  

    Final Occupation by Irrep:
             A1    A2    B1    B2 
    DOCC [     7,    1,    3,    3 ]

  @DF-RKS Final Energy:  -246.48830210389985

   => Energetics <=

    Nuclear Repulsion Energy =             45.8220466823314041
    One-Electron Energy =                -492.4379034738987002
    Two-Electron Energy =                 214.0849625255939088
    DFT Exchange-Correlation Energy =     -13.9573924479264662
    Empirical Dispersion Energy =          -0.0000153900000000
    VV10 Nonlocal Energy =                  0.0000000000000000
    Total Energy =                       -246.4883021038998550

Computation Completed


Properties will be evaluated at   0.000000,   0.000000,   0.000000 [a0]

Properties computed using the SCF density matrix

  Nuclear Dipole Moment: [e a0]
     X:     0.0000      Y:     0.0000      Z:   -17.8191

  Electronic Dipole Moment: [e a0]
     X:     0.0000      Y:     0.0000      Z:    20.1128

  Dipole Moment: [e a0]
     X:     0.0000      Y:     0.0000      Z:     2.2937     Total:     2.2937

  Dipole Moment: [D]
     X:     0.0000      Y:     0.0000      Z:     5.8300     Total:     5.8300


*** tstop() called on bp1-compute00116.data.bp.acrc.priv at Fri Oct 29 08:37:49 2021
Module time:
	user time   =      55.98 seconds =       0.93 minutes
	system time =       2.01 seconds =       0.03 minutes
	total time  =          3 seconds =       0.05 minutes
Total time:
	user time   =    1062.92 seconds =      17.72 minutes
	system time =      47.69 seconds =       0.79 minutes
	total time  =        101 seconds =       1.68 minutes

*** tstart() called on bp1-compute00116.data.bp.acrc.priv
*** at Fri Oct 29 08:37:49 2021


         ------------------------------------------------------------
                                   SCF GRAD                          
                          Rob Parrish, Justin Turney,                
                       Andy Simmonett, and Alex Sokolov              
         ------------------------------------------------------------

  ==> Geometry <==

    Molecular point group: c2v
    Full point group: C_inf_v

    Geometry (in Angstrom), charge = 0, multiplicity = 1:

       Center              X                  Y                   Z               Mass       
    ------------   -----------------  -----------------  -----------------  -----------------
         AG           0.000000000000     0.000000000000     0.297990263404   106.905091600000
         F            0.000000000000     0.000000000000    -1.676808104987    18.998403162730

  Nuclear repulsion =   45.822046682331404

  ==> Basis Set <==

  Basis Set: DEF2-TZVPPD
    Blend: DEF2-TZVPPD
    Number of shells: 30
    Number of basis function: 96
    Number of Cartesian functions: 117
    Spherical Harmonics?: true
    Max angular momentum: 4

  Core potential: DEF2-TZVPPD
    Number of shells: 4
    Number of ECP primitives: 14
    Number of ECP core electrons: 28
    Max angular momentum: 3

  ==> DFJKGrad: Density-Fitted SCF Gradients <==

    Gradient:                    1
    J tasked:                  Yes
    K tasked:                  Yes
    wK tasked:                  No
    OpenMP threads:             24
    Integrals threads:          24
    Memory [MiB]:           102996
    Schwarz Cutoff:          0E+00
    Fitting Condition:       1E-10

   => Auxiliary Basis Set <=

  Basis Set: (DEF2-TZVPPD AUX)
    Blend: DEF2-TZVPP-JKFIT
    Number of shells: 74
    Number of basis function: 332
    Number of Cartesian functions: 477
    Spherical Harmonics?: true
    Max angular momentum: 6

  ==> DFT Potential <==

   => Composite Functional: MN15-D3BJ <= 

   MN15 Hybrid Meta-GGA Exchange-Correlation Functional

    H. S. Yu, X. He, S. L. Li, and D. G. Truhlar, Chem. Sci. 7, 5032-5051, 2016


    Deriv               =              1
    GGA                 =           TRUE
    Meta                =           TRUE

    Exchange Hybrid     =           TRUE
    MP2 Hybrid          =          FALSE

   => Exchange Functionals <=

    1.0000   XC_HYB_MGGA_X_MN15

   => Exact (HF) Exchange <=

    0.4400               HF 

   => Correlation Functionals <=

    1.0000   XC_MGGA_C_MN15

   => Molecular Quadrature <=

    Radial Scheme          =       TREUTLER
    Pruning Scheme         =           FLAT
    Nuclear Scheme         =       TREUTLER

    BS radius alpha        =              1
    Pruning alpha          =              1
    Radial Points          =             75
    Spherical Points       =            302
    Total Points           =          45055
    Total Blocks           =            425
    Max Points             =            254
    Max Functions          =             95


  -Total Gradient:
     Atom            X                  Y                   Z
    ------   -----------------  -----------------  -----------------
       1       -0.000000000000     0.000000000000    -0.114933583181
       2        0.000000000000    -0.000000000000     0.115004313124


*** tstop() called on bp1-compute00116.data.bp.acrc.priv at Fri Oct 29 08:37:54 2021
Module time:
	user time   =      34.04 seconds =       0.57 minutes
	system time =       2.30 seconds =       0.04 minutes
	total time  =          5 seconds =       0.08 minutes
Total time:
	user time   =    1097.81 seconds =      18.30 minutes
	system time =      50.03 seconds =       0.83 minutes
	total time  =        106 seconds =       1.77 minutes


  ==> Adding ECP gradient terms (computed numerically) <==

  -ECP Gradient:
     Atom            X                  Y                   Z
    ------   -----------------  -----------------  -----------------
       1        0.000000000000    -0.000000000000     0.114967066465
       2        0.000000000000    -0.000000000000    -0.114967066445


  -Total Gradient:
     Atom            X                  Y                   Z
    ------   -----------------  -----------------  -----------------
       1        0.000000000000    -0.000000000000     0.000033483284
       2        0.000000000000    -0.000000000000     0.000037246679


  Based on options and gradient (rms=2.04E-05), recommend projecting translations and projecting rotations.
hessian() will perform frequency computation by finite difference of analytic gradients.

         ----------------------------------------------------------
                                   FINDIF
                     R. A. King and Jonathon Misiewicz
         ---------------------------------------------------------

  Using finite-differences of gradients to determine vibrational frequencies and 
  normal modes.  Resulting frequencies are only valid at stationary points.
    Generating geometries for use with 3-point formula.
    Displacement size will be 5.00e-03.
    Number of atoms is 2.
    Number of irreps is 4.
    Number of SALCs is 1.
    Translations projected? 1. Rotations projected? 1.
    Index of SALCs per irrep:
     1 :  0 
     2 : 
     3 : 
     4 : 
    Number of SALCs per irrep:
     Irrep 1: 1
     Irrep 2: 0
     Irrep 3: 0
     Irrep 4: 0
    Number of geometries (including reference) is 3.
    Number of displacements per irrep:
      Irrep 1: 2
      Irrep 2: 0
      Irrep 3: 0
      Irrep 4: 0

  //>>>>>>>>>>>>>>>>>>>>>>>>>>>>>>>>>>>//
  //    Loading displacement 1 of 3    //
  //<<<<<<<<<<<<<<<<<<<<<<<<<<<<<<<<<<<//
gradient() will perform analytic gradient computation.

*** tstart() called on bp1-compute00116.data.bp.acrc.priv
*** at Fri Oct 29 08:38:19 2021

   => Loading Basis Set <=

    Name: DEF2-TZVPPD
    Role: ORBITAL
    Keyword: BASIS
    atoms 1 entry AG         line  2174 (ECP: line  3646) file /work/zw18965/.conda/envs/p4env/share/psi4/basis/def2-tzvppd.gbs 
    atoms 2 entry F          line   257 file /work/zw18965/.conda/envs/p4env/share/psi4/basis/def2-tzvppd.gbs 

    !!!  WARNING: ECP capability is in beta. Please check occupations closely.  !!!


         ---------------------------------------------------------
                                   SCF
               by Justin Turney, Rob Parrish, Andy Simmonett
                          and Daniel G. A. Smith
                              RKS Reference
                       24 Threads, 137329 MiB Core
         ---------------------------------------------------------

  ==> Geometry <==

    Molecular point group: c2v
    Full point group: C_inf_v

    Geometry (in Angstrom), charge = 0, multiplicity = 1:

       Center              X                  Y                   Z               Mass       
    ------------   -----------------  -----------------  -----------------  -----------------
         AG           0.000000000000     0.000000000000     0.297990263404   106.905091600000
         F            0.000000000000     0.000000000000    -1.676808104987    18.998403162730

  Running in c2v symmetry.

  Rotational constants: A = ************  B =      0.26796  C =      0.26796 [cm^-1]
  Rotational constants: A = ************  B =   8033.29981  C =   8033.29981 [MHz]
  Nuclear repulsion =   45.822046682331404

  Charge       = 0
  Multiplicity = 1
  Electrons    = 28
  Nalpha       = 14
  Nbeta        = 14

  ==> Algorithm <==

  SCF Algorithm Type is DF.
  DIIS enabled.
  MOM disabled.
  Fractional occupation disabled.
  Guess Type is SAD.
  Energy threshold   = 1.00e-08
  Density threshold  = 1.00e-08
  Integral threshold = 0.00e+00

  ==> Primary Basis <==

  Basis Set: DEF2-TZVPPD
    Blend: DEF2-TZVPPD
    Number of shells: 30
    Number of basis function: 96
    Number of Cartesian functions: 117
    Spherical Harmonics?: true
    Max angular momentum: 4

  Core potential: DEF2-TZVPPD
    Number of shells: 4
    Number of ECP primitives: 14
    Number of ECP core electrons: 28
    Max angular momentum: 3

  ==> DFT Potential <==

   => Composite Functional: MN15-D3BJ <= 

   MN15 Hybrid Meta-GGA Exchange-Correlation Functional

    H. S. Yu, X. He, S. L. Li, and D. G. Truhlar, Chem. Sci. 7, 5032-5051, 2016


    Deriv               =              1
    GGA                 =           TRUE
    Meta                =           TRUE

    Exchange Hybrid     =           TRUE
    MP2 Hybrid          =          FALSE

   => Exchange Functionals <=

    1.0000   XC_HYB_MGGA_X_MN15

   => Exact (HF) Exchange <=

    0.4400               HF 

   => Correlation Functionals <=

    1.0000   XC_MGGA_C_MN15

   => Molecular Quadrature <=

    Radial Scheme          =       TREUTLER
    Pruning Scheme         =           FLAT
    Nuclear Scheme         =       TREUTLER

    BS radius alpha        =              1
    Pruning alpha          =              1
    Radial Points          =             75
    Spherical Points       =            302
    Total Points           =          45055
    Total Blocks           =            425
    Max Points             =            254
    Max Functions          =             95

   => MN15-D3(BJ): Empirical Dispersion <=

    Grimme's -D3 (BJ-damping) Dispersion Correction
    Grimme S.; Ehrlich S.; Goerigk L. (2011), J. Comput. Chem., 32: 1456
[...]

   MN15 Hybrid Meta-GGA Exchange-Correlation Functional

    H. S. Yu, X. He, S. L. Li, and D. G. Truhlar, Chem. Sci. 7, 5032-5051, 2016


    Deriv               =              1
    GGA                 =           TRUE
    Meta                =           TRUE

    Exchange Hybrid     =           TRUE
    MP2 Hybrid          =          FALSE

   => Exchange Functionals <=

    1.0000   XC_HYB_MGGA_X_MN15

   => Exact (HF) Exchange <=

    0.4400               HF 

   => Correlation Functionals <=

    1.0000   XC_MGGA_C_MN15

   => Molecular Quadrature <=

    Radial Scheme          =       TREUTLER
    Pruning Scheme         =           FLAT
    Nuclear Scheme         =       TREUTLER

    BS radius alpha        =              1
    Pruning alpha          =              1
    Radial Points          =             75
    Spherical Points       =            302
    Total Points           =          45055
    Total Blocks           =            425
    Max Points             =            254
    Max Functions          =             95

   => MN15-D3(BJ): Empirical Dispersion <=

    Grimme's -D3 (BJ-damping) Dispersion Correction
    Grimme S.; Ehrlich S.; Goerigk L. (2011), J. Comput. Chem., 32: 1456
    Parametrisation from:    L. Goerigk, A. Hansen, C. Bauer, S. Ehrlich, A. Najibi, S. Grimme, Phys. Chem. Chem. Phys. 19, 32184-32215, 2017

        s6 =       1.000000
        s8 =       2.097100
        a1 =       0.786200
        a2 =       7.592300

   => Loading Basis Set <=

    Name: (DEF2-TZVPPD AUX)
    Role: JKFIT
    Keyword: DF_BASIS_SCF
    atoms 1 entry AG         line  4369 file /work/zw18965/.conda/envs/p4env/share/psi4/basis/def2-tzvpp-jkfit.gbs 
    atoms 2 entry F          line   383 file /work/zw18965/.conda/envs/p4env/share/psi4/basis/def2-tzvpp-jkfit.gbs 

  ==> Pre-Iterations <==

   -------------------------------------------------------
    Irrep   Nso     Nmo     Nalpha   Nbeta   Ndocc  Nsocc
   -------------------------------------------------------
     A1        41      41       0       0       0       0
     A2        11      11       0       0       0       0
     B1        22      22       0       0       0       0
     B2        22      22       0       0       0       0
   -------------------------------------------------------
    Total      96      96      14      14      14       0
   -------------------------------------------------------

  ==> Integral Setup <==

  DFHelper Memory: AOs need 0.028 GiB; user supplied 100.320 GiB. Using in-core AOs.

  ==> MemDFJK: Density-Fitted J/K Matrices <==

    J tasked:                   Yes
    K tasked:                   Yes
    wK tasked:                   No
    OpenMP threads:              24
    Memory [MiB]:            102727
    Algorithm:                 Core
    Schwarz Cutoff:           1E-12
    Mask sparsity (%):       0.4557
    Fitting Condition:        1E-10

   => Auxiliary Basis Set <=

  Basis Set: (DEF2-TZVPPD AUX)
    Blend: DEF2-TZVPP-JKFIT
    Number of shells: 74
    Number of basis function: 332
    Number of Cartesian functions: 477
    Spherical Harmonics?: true
    Max angular momentum: 6

  Cached 100.0% of DFT collocation blocks in 0.263 [GiB].

  Minimum eigenvalue in the overlap matrix is 3.3810362953E-03.
  Using Symmetric Orthogonalization.

  SCF Guess: Superposition of Atomic Densities via on-the-fly atomic UHF.

  ==> Iterations <==

                           Total Energy        Delta E     RMS |[F,P]|

   @DF-RKS iter SAD:  -245.90347804510341   -2.45903e+02   0.00000e+00 
   @DF-RKS iter   1:  -246.31382432261617   -4.10346e-01   1.31912e-02 DIIS
   @DF-RKS iter   2:  -244.15769254335359    2.15613e+00   4.60328e-02 DIIS
   @DF-RKS iter   3:  -246.48340327180739   -2.32571e+00   2.03535e-03 DIIS
   @DF-RKS iter   4:  -246.48625208022082   -2.84881e-03   1.64975e-03 DIIS
   @DF-RKS iter   5:  -246.48791817559243   -1.66610e-03   5.73493e-04 DIIS
   @DF-RKS iter   6:  -246.48823456172931   -3.16386e-04   2.28723e-04 DIIS
   @DF-RKS iter   7:  -246.48829054450019   -5.59828e-05   6.32815e-05 DIIS
   @DF-RKS iter   8:  -246.48830094165001   -1.03971e-05   1.16346e-05 DIIS
   @DF-RKS iter   9:  -246.48830194006908   -9.98419e-07   2.78166e-06 DIIS
   @DF-RKS iter  10:  -246.48830199242960   -5.23605e-08   5.15503e-07 DIIS
   @DF-RKS iter  11:  -246.48830199331138   -8.81784e-10   2.10026e-07 DIIS
   @DF-RKS iter  12:  -246.48830199335788   -4.64979e-11   2.40092e-08 DIIS
   @DF-RKS iter  13:  -246.48830199335850   -6.25278e-13   3.24747e-09 DIIS
  Energy and wave function converged.


  ==> Post-Iterations <==

    Orbital Energies [Eh]
    ---------------------

    Doubly Occupied:                                                      

       1A1   -24.158741     2A1    -3.679579     1B1    -2.331207  
       1B2    -2.331207     3A1    -2.328364     4A1    -1.064483  
       5A1    -0.447657     2B2    -0.425445     2B1    -0.425445  
       1A2    -0.407091     6A1    -0.407084     3B2    -0.338318  
       3B1    -0.338318     7A1    -0.330210  

    Virtual:                                                              

       8A1    -0.093146     4B1     0.032307     4B2     0.032307  
       9A1     0.079915    10A1     0.131293    11A1     0.200175  
       5B2     0.207963     5B1     0.207963     6B2     0.230747  
       6B1     0.230747    12A1     0.279219    13A1     0.389467  
       2A2     0.424440    14A1     0.424441     7B1     0.514413  
       7B2     0.514413    15A1     0.561053     3A2     0.610993  
      16A1     0.610994     8B1     0.734580     8B2     0.734580  
      17A1     0.735328     9B2     0.854701     9B1     0.854701  
      18A1     1.144437    19A1     1.167631    10B2     1.557363  
      10B1     1.557363     4A2     1.571377    20A1     1.571380  
      11B2     1.599923    11B1     1.599923    21A1     1.658309  
      12B2     1.675972    12B1     1.675972    22A1     1.784237  
      23A1     1.966827    24A1     2.022075     5A2     2.022114  
      13B2     2.033057    13B1     2.033057    25A1     2.064365  
       6A2     2.364498    26A1     2.364546    14B2     2.430102  
      14B1     2.430102    27A1     2.779761    15B2     3.388216  
      15B1     3.388216    28A1     3.681279    29A1     4.146910  
      16B2     4.585135    16B1     4.585135    30A1     4.596753  
       7A2     4.596841    17B1     4.659932    17B2     4.659932  
      31A1     4.851296    32A1     5.391723     8A2     5.391833  
      18B1     5.392449    18B2     5.392449     9A2     5.392966  
      33A1     5.393053    19B2     5.394317    19B1     5.394317  
      34A1     5.457060    35A1     6.860426    10A2     6.860464  
      20B1     6.878244    20B2     6.878244    21B1     6.882445  
      21B2     6.882445    36A1     6.991101    37A1     8.376060  
      11A2     8.376106    22B1     8.399748    22B2     8.399748  
      38A1     8.584604    39A1    32.822393    40A1    54.806397  
      41A1   110.544746  

    Final Occupation by Irrep:
             A1    A2    B1    B2 
    DOCC [     7,    1,    3,    3 ]

  @DF-RKS Final Energy:  -246.48830199335850

   => Energetics <=

    Nuclear Repulsion Energy =             45.8067661263009143
    One-Electron Energy =                -492.4078416239227067
    Two-Electron Energy =                 214.0701230624473226
    DFT Exchange-Correlation Energy =     -13.9573341681840368
    Empirical Dispersion Energy =          -0.0000153900000000
    VV10 Nonlocal Energy =                  0.0000000000000000
    Total Energy =                       -246.4883019933584762

Computation Completed


Properties will be evaluated at   0.000000,   0.000000,   0.000000 [a0]

Properties computed using the SCF density matrix

  Nuclear Dipole Moment: [e a0]
     X:     0.0000      Y:     0.0000      Z:   -17.8250

  Electronic Dipole Moment: [e a0]
     X:     0.0000      Y:     0.0000      Z:    20.1199

  Dipole Moment: [e a0]
     X:     0.0000      Y:     0.0000      Z:     2.2949     Total:     2.2949

  Dipole Moment: [D]
     X:     0.0000      Y:     0.0000      Z:     5.8330     Total:     5.8330


*** tstop() called on bp1-compute00116.data.bp.acrc.priv at Fri Oct 29 08:39:29 2021
Module time:
	user time   =      55.16 seconds =       0.92 minutes
	system time =       1.90 seconds =       0.03 minutes
	total time  =          4 seconds =       0.07 minutes
Total time:
	user time   =    2108.31 seconds =      35.14 minutes
	system time =      92.30 seconds =       1.54 minutes
	total time  =        201 seconds =       3.35 minutes

*** tstart() called on bp1-compute00116.data.bp.acrc.priv
*** at Fri Oct 29 08:39:29 2021


         ------------------------------------------------------------
                                   SCF GRAD                          
                          Rob Parrish, Justin Turney,                
                       Andy Simmonett, and Alex Sokolov              
         ------------------------------------------------------------

  ==> Geometry <==

    Molecular point group: c2v
    Full point group: C_inf_v

    Geometry (in Angstrom), charge = 0, multiplicity = 1:

       Center              X                  Y                   Z               Mass       
    ------------   -----------------  -----------------  -----------------  -----------------
         AG           0.000000000000     0.000000000000     0.298089669175   106.905091600000
         F            0.000000000000     0.000000000000    -1.677367466897    18.998403162730

  Nuclear repulsion =   45.806766126300914

  ==> Basis Set <==

  Basis Set: DEF2-TZVPPD
    Blend: DEF2-TZVPPD
    Number of shells: 30
    Number of basis function: 96
    Number of Cartesian functions: 117
    Spherical Harmonics?: true
    Max angular momentum: 4

  Core potential: DEF2-TZVPPD
    Number of shells: 4
    Number of ECP primitives: 14
    Number of ECP core electrons: 28
    Max angular momentum: 3

  ==> DFJKGrad: Density-Fitted SCF Gradients <==

    Gradient:                    1
    J tasked:                  Yes
    K tasked:                  Yes
    wK tasked:                  No
    OpenMP threads:             24
    Integrals threads:          24
    Memory [MiB]:           102996
    Schwarz Cutoff:          0E+00
    Fitting Condition:       1E-10

   => Auxiliary Basis Set <=

  Basis Set: (DEF2-TZVPPD AUX)
    Blend: DEF2-TZVPP-JKFIT
    Number of shells: 74
    Number of basis function: 332
    Number of Cartesian functions: 477
    Spherical Harmonics?: true
    Max angular momentum: 6

  ==> DFT Potential <==

   => Composite Functional: MN15-D3BJ <= 

   MN15 Hybrid Meta-GGA Exchange-Correlation Functional

    H. S. Yu, X. He, S. L. Li, and D. G. Truhlar, Chem. Sci. 7, 5032-5051, 2016


    Deriv               =              1
    GGA                 =           TRUE
    Meta                =           TRUE

    Exchange Hybrid     =           TRUE
    MP2 Hybrid          =          FALSE

   => Exchange Functionals <=

    1.0000   XC_HYB_MGGA_X_MN15

   => Exact (HF) Exchange <=

    0.4400               HF 

   => Correlation Functionals <=

    1.0000   XC_MGGA_C_MN15

   => Molecular Quadrature <=

    Radial Scheme          =       TREUTLER
    Pruning Scheme         =           FLAT
    Nuclear Scheme         =       TREUTLER

    BS radius alpha        =              1
    Pruning alpha          =              1
    Radial Points          =             75
    Spherical Points       =            302
    Total Points           =          45055
    Total Blocks           =            425
    Max Points             =            254
    Max Functions          =             95


  -Total Gradient:
     Atom            X                  Y                   Z
    ------   -----------------  -----------------  -----------------
       1        0.000000000000     0.000000000000    -0.114548043111
       2        0.000000000000    -0.000000000000     0.114618656353


*** tstop() called on bp1-compute00116.data.bp.acrc.priv at Fri Oct 29 08:39:33 2021
Module time:
	user time   =      33.59 seconds =       0.56 minutes
	system time =       2.35 seconds =       0.04 minutes
	total time  =          4 seconds =       0.07 minutes
Total time:
	user time   =    2142.88 seconds =      35.71 minutes
	system time =      94.72 seconds =       1.58 minutes
	total time  =        205 seconds =       3.42 minutes


  ==> Adding ECP gradient terms (computed numerically) <==

  -ECP Gradient:
     Atom            X                  Y                   Z
    ------   -----------------  -----------------  -----------------
       1       -0.000000000000     0.000000000000     0.114778802300
       2       -0.000000000000     0.000000000000    -0.114778802303


  -Total Gradient:
     Atom            X                  Y                   Z
    ------   -----------------  -----------------  -----------------
       1       -0.000000000000     0.000000000000     0.000230759189
       2       -0.000000000000     0.000000000000    -0.000160145949


         ----------------------------------------------------------
                                   FINDIF
                     R. A. King and Jonathon Misiewicz
         ---------------------------------------------------------

  Computing second-derivative from gradients using projected, 
  symmetry-adapted, cartesian coordinates.

  3 gradients passed in, including the reference geometry.
  Generating complete list of displacements from unique ones.


-------------------------------------------------------------


  ==> Harmonic Vibrational Analysis <==

  non-mass-weighted Hessian:       Symmetric? True   Hermitian? True   Lin Dep Dim?  5 (0)
  projection of translations (True) and rotations (True) removed 5 degrees of freedom (5)
  total projector:                 Symmetric? True   Hermitian? True   Lin Dep Dim?  5 (5)
  mass-weighted Hessian:           Symmetric? True   Hermitian? True   Lin Dep Dim?  5 (0)
  pre-proj  low-frequency mode:    0.0000i [cm^-1]
  pre-proj  low-frequency mode:    0.0000  [cm^-1]
  pre-proj  low-frequency mode:    0.0000  [cm^-1]
  pre-proj  low-frequency mode:    0.0000  [cm^-1]
  pre-proj  low-frequency mode:    0.0000  [cm^-1]
  pre-proj  all modes:['0.0000i' '0.0000' '0.0000' '0.0000' '0.0000' '510.0463']
  projected mass-weighted Hessian: Symmetric? True   Hermitian? True   Lin Dep Dim?  5 (5)
  post-proj low-frequency mode:    0.0000  [cm^-1] (TR)
  post-proj low-frequency mode:    0.0000  [cm^-1] (TR)
  post-proj low-frequency mode:    0.0000  [cm^-1] (TR)
  post-proj low-frequency mode:    0.0000  [cm^-1] (TR)
  post-proj low-frequency mode:    0.0000  [cm^-1] (TR)
  post-proj  all modes:['0.0000' '0.0000' '0.0000' '0.0000' '0.0000' '510.0463']

  Vibration                       6           
  Freq [cm^-1]                 510.0463       
  Irrep                           A1          
  Reduced mass [u]             21.6897        
  Force const [mDyne/A]         3.3245        
  Turning point v=0 [a0]        0.1043        
  RMS dev v=0 [a0 u^1/2]        0.3436        
  Char temp [K]                733.8430       
  ----------------------------------------------------------------------------------
      1   AG               0.00  0.00 -0.17   
      2   F                0.00  0.00  0.98   

  ==> Thermochemistry Components <==

  Entropy, S
    Electronic S            0.000 [cal/(mol K)]        0.000 [J/(mol K)]       0.00000000 [mEh/K] (multiplicity = 1)
    Translational S        40.405 [cal/(mol K)]      169.053 [J/(mol K)]       0.06438884 [mEh/K] (mol. weight = 125.9035 [u], P = 101325.00 [Pa])
    Rotational S           15.204 [cal/(mol K)]       63.612 [J/(mol K)]       0.02422836 [mEh/K] (symmetry no. = 1)
    Vibrational S           0.633 [cal/(mol K)]        2.650 [J/(mol K)]       0.00100951 [mEh/K]
  Total S                  56.242 [cal/(mol K)]      235.315 [J/(mol K)]       0.08962671 [mEh/K]
  Correction S              0.000 [cal/(mol K)]        0.000 [J/(mol K)]       0.00000000 [mEh/K]

  Constant volume heat capacity, Cv
    Electronic Cv           0.000 [cal/(mol K)]        0.000 [J/(mol K)]       0.00000000 [mEh/K]
    Translational Cv        2.981 [cal/(mol K)]       12.472 [J/(mol K)]       0.00475022 [mEh/K]
    Rotational Cv           1.987 [cal/(mol K)]        8.314 [J/(mol K)]       0.00316681 [mEh/K]
    Vibrational Cv          1.228 [cal/(mol K)]        5.137 [J/(mol K)]       0.00195652 [mEh/K]
  Total Cv                  6.196 [cal/(mol K)]       25.923 [J/(mol K)]       0.00987355 [mEh/K]
  Correction Cv             0.000 [cal/(mol K)]        0.000 [J/(mol K)]       0.00000000 [mEh/K]

  Constant pressure heat capacity, Cp
    Electronic Cp           0.000 [cal/(mol K)]        0.000 [J/(mol K)]       0.00000000 [mEh/K]
    Translational Cp        4.968 [cal/(mol K)]       20.786 [J/(mol K)]       0.00791703 [mEh/K]
    Rotational Cp           1.987 [cal/(mol K)]        8.314 [J/(mol K)]       0.00316681 [mEh/K]
    Vibrational Cp          1.228 [cal/(mol K)]        5.137 [J/(mol K)]       0.00195652 [mEh/K]
  Total Cp                  8.183 [cal/(mol K)]       34.237 [J/(mol K)]       0.01304036 [mEh/K]
  Correction Cp             0.000 [cal/(mol K)]        0.000 [J/(mol K)]       0.00000000 [mEh/K]

  ==> Thermochemistry Energy Analysis <==

  Raw electronic energy, E0
  Total E0, Electronic energy at well bottom at 0 [K]                 -246.48830210 [Eh]

  Zero-point energy, ZPE_vib = Sum_i nu_i / 2
    Electronic ZPE          0.000 [kcal/mol]        0.000 [kJ/mol]       0.00000000 [Eh]
    Translational ZPE       0.000 [kcal/mol]        0.000 [kJ/mol]       0.00000000 [Eh]
    Rotational ZPE          0.000 [kcal/mol]        0.000 [kJ/mol]       0.00000000 [Eh]
    Vibrational ZPE         0.729 [kcal/mol]        3.051 [kJ/mol]       0.00116197 [Eh]         255.023 [cm^-1]
  Correction ZPE            0.729 [kcal/mol]        3.051 [kJ/mol]       0.00116197 [Eh]         255.023 [cm^-1]
  Total ZPE, Electronic energy at 0 [K]                               -246.48714013 [Eh]

  Thermal Energy, E (includes ZPE)
    Electronic E            0.000 [kcal/mol]        0.000 [kJ/mol]       0.00000000 [Eh]
    Translational E         0.889 [kcal/mol]        3.718 [kJ/mol]       0.00141628 [Eh]
    Rotational E            0.592 [kcal/mol]        2.479 [kJ/mol]       0.00094418 [Eh]
    Vibrational E           0.865 [kcal/mol]        3.620 [kJ/mol]       0.00137875 [Eh]
  Correction E              2.346 [kcal/mol]        9.817 [kJ/mol]       0.00373921 [Eh]
  Total E, Electronic energy at  298.15 [K]                           -246.48456289 [Eh]

  Enthalpy, H_trans = E_trans + k_B * T
    Electronic H            0.000 [kcal/mol]        0.000 [kJ/mol]       0.00000000 [Eh]
    Translational H         1.481 [kcal/mol]        6.197 [kJ/mol]       0.00236046 [Eh]
    Rotational H            0.592 [kcal/mol]        2.479 [kJ/mol]       0.00094418 [Eh]
    Vibrational H           0.865 [kcal/mol]        3.620 [kJ/mol]       0.00137875 [Eh]
  Correction H              2.939 [kcal/mol]       12.296 [kJ/mol]       0.00468340 [Eh]
  Total H, Enthalpy at  298.15 [K]                                    -246.48361871 [Eh]

  Gibbs free energy, G = H - T * S
    Electronic G            0.000 [kcal/mol]        0.000 [kJ/mol]       0.00000000 [Eh]
    Translational G       -10.565 [kcal/mol]      -44.206 [kJ/mol]      -0.01683707 [Eh]
    Rotational G           -3.940 [kcal/mol]      -16.487 [kJ/mol]      -0.00627950 [Eh]
    Vibrational G           0.676 [kcal/mol]        2.830 [kJ/mol]       0.00107777 [Eh]
  Correction G            -13.830 [kcal/mol]      -57.863 [kJ/mol]      -0.02203881 [Eh]
  Total G, Free enthalpy at  298.15 [K]                               -246.51034091 [Eh]

    Psi4 stopped on: Friday, 29 October 2021 08:39AM
    Psi4 wall time for execution: 0:03:50.18

*** Psi4 exiting successfully. Buy a developer a beer!
