Optimizer: Optimization complete!
 3 displacements needed.
 1 2 3
At level 1: Red. Int., RFO, no backsteps, dynamic trust
At level 1: Red. Int., RFO, no backsteps, dynamic trust
At level 1: Red. Int., RFO, no backsteps, dynamic trust
At level 1: Red. Int., RFO, no backsteps, dynamic trust
immonett, R. M. Parrish,
    M. C. Schieber, R. Galvelis, P. Kraus, H. Kruse, R. Di Remigio,
    A. Alenaizan, A. M. James, S. Lehtola, J. P. Misiewicz, M. Scheurer,
    R. A. Shaw, J. B. Schriber, Y. Xie, Z. L. Glick, D. A. Sirianni,
    J. S. O'Brien, J. M. Waldrop, A. Kumar, E. G. Hohenstein,
    B. P. Pritchard, B. R. Brooks, H. F. Schaefer III, A. Yu. Sokolov,
    K. Patkowski, A. E. DePrince III, U. Bozkaya, R. A. King,
    F. A. Evangelista, J. M. Turney, T. D. Crawford, C. D. Sherrill,
    J. Chem. Phys. 152(18) 184108 (2020). https://doi.org/10.1063/5.0006002

                            Additional Code Authors
    E. T. Seidl, C. L. Janssen, E. F. Valeev, M. L. Leininger,
    J. F. Gonthier, R. M. Richard, H. R. McAlexander, M. Saitow, X. Wang,
    P. Verma, and M. H. Lechner

             Previous Authors, Complete List of Code Contributors,
                       and Citations for Specific Modules
    https://github.com/psi4/psi4/blob/master/codemeta.json
    https://github.com/psi4/psi4/graphs/contributors
    http://psicode.org/psi4manual/master/introduction.html#citing-psifour

    -----------------------------------------------------------------------


    Psi4 started on: Tuesday, 02 November 2021 10:30AM

    Process ID: 14809
    Host:       compute405.bc4.acrc.priv
    PSIDATADIR: /mnt/storage/home/zw18965/.conda/envs/p4env/share/psi4
    Memory:     500.0 MiB
    Threads:    28
    
  ==> Input File <==

--------------------------------------------------------------------------
memory 120 GB

molecule {
0 1
Ag       0.000000    0.000000    0.033547 
H        0.000000    0.000000   -1.576706 
 }

set dynamic_level 1
set basis Def2-TZVPPD

optimize("MN15-D3BJ")
frequencies("MN15-D3BJ")
--------------------------------------------------------------------------

  Memory set to 111.759 GiB by Python driver.

Scratch directory: /tmp/
gradient() will perform analytic gradient computation.

*** tstart() called on compute405.bc4.acrc.priv
*** at Tue Nov  2 10:30:07 2021

   => Loading Basis Set <=

    Name: DEF2-TZVPPD
    Role: ORBITAL
    Keyword: BASIS
    atoms 1 entry AG         line  2174 (ECP: line  3646) file /mnt/storage/home/zw18965/.conda/envs/p4env/share/psi4/basis/def2-tzvppd.gbs 
    atoms 2 entry H          line    14 file /mnt/storage/home/zw18965/.conda/envs/p4env/share/psi4/basis/def2-tzvppd.gbs 

    !!!  WARNING: ECP capability is in beta. Please check occupations closely.  !!!

   => MN15-D3(BJ): Empirical Dispersion <=

    Grimme's -D3 (BJ-damping) Dispersion Correction
    Grimme S.; Ehrlich S.; Goerigk L. (2011), J. Comput. Chem., 32: 1456
    Parametrisation from:    L. Goerigk, A. Hansen, C. Bauer, S. Ehrlich, A. Najibi, S. Grimme, Phys. Chem. Chem. Phys. 19, 32184-32215, 2017

        s6 =       1.000000
        s8 =       2.097100
        a1 =       0.786200
        a2 =       7.592300


         ---------------------------------------------------------
                                   SCF
               by Justin Turney, Rob Parrish, Andy Simmonett
                          and Daniel G. A. Smith
                              RKS Reference
                       28 Threads, 114440 MiB Core
         ---------------------------------------------------------

  ==> Geometry <==

    Molecular point group: c2v
    Full point group: C_inf_v

    Geometry (in Angstrom), charge = 0, multiplicity = 1:

       Center              X                  Y                   Z               Mass       
    ------------   -----------------  -----------------  -----------------  -----------------
         AG           0.000000000000     0.000000000000     0.015038545267   106.905091600000
         H            0.000000000000     0.000000000000    -1.595214454733     1.007825032230

  Running in c2v symmetry.

  Rotational constants: A = ************  B =      6.51176  C =      6.51176 [cm^-1]
  Rotational constants: A = ************  B = 195217.55314  C = 195217.55314 [MHz]
  Nuclear repulsion =    6.243967254046415

  Charge       = 0
  Multiplicity = 1
  Electrons    = 20
  Nalpha       = 10
  Nbeta        = 10

  ==> Algorithm <==

  SCF Algorithm Type is DF.
  DIIS enabled.
  MOM disabled.
  Fractional occupation disabled.
  Guess Type is SAD.
  Energy threshold   = 1.00e-08
  Density threshold  = 1.00e-08
  Integral threshold = 1.00e-12

  ==> Primary Basis <==

  Basis Set: DEF2-TZVPPD
    Blend: DEF2-TZVPPD
    Number of shells: 23
    Number of basis functions: 73
    Number of Cartesian functions: 89
    Spherical Harmonics?: true
    Max angular momentum: 4

  Core potential: DEF2-TZVPPD
    Number of shells: 4
    Number of ECP primitives: 14
    Number of ECP core electrons: 28
    Max angular momentum: 3

  ==> DFT Potential <==

   => Composite Functional: MN15-D3BJ <= 

   MN15 Hybrid Meta-GGA Exchange-Correlation Functional

    H. S. Yu, X. He, S. L. Li, and D. G. Truhlar, Chem. Sci. 7, 5032-5051, 2016


    Deriv               =              1
    GGA                 =           TRUE
    Meta                =           TRUE

    Exchange Hybrid     =           TRUE
    MP2 Hybrid          =          FALSE

   => Exchange Functionals <=

    1.0000   XC_HYB_MGGA_X_MN15

   => Exact (HF) Exchange <=

    0.4400               HF 

   => Correlation Functionals <=

    1.0000   XC_MGGA_C_MN15

   => LibXC Density Thresholds  <==

    XC_MGGA_C_MN15:  1.00E-15 
    XC_HYB_MGGA_X_MN15:  1.00E-15 

   => Molecular Quadrature <=

    Radial Scheme          =       TREUTLER
    Pruning Scheme         =           NONE
    Nuclear Scheme         =       TREUTLER

    BS radius alpha        =              1
    Pruning alpha          =              1
    Radial Points          =             75
    Spherical Points       =            302
    Total Points           =          43133
    Total Blocks           =            397
    Max Points             =            254
    Max Functions          =             73
    Weights Tolerance      =       1.00E-15

   => Loading Basis Set <=

    Name: (DEF2-TZVPPD AUX)
    Role: JKFIT
    Keyword: DF_BASIS_SCF
    atoms 1 entry AG         line  4364 file /mnt/storage/home/zw18965/.conda/envs/p4env/share/psi4/basis/def2-universal-jkfit.gbs 
    atoms 2 entry H          line    18 file /mnt/storage/home/zw18965/.conda/envs/p4env/share/psi4/basis/def2-universal-jkfit.gbs 

  ==> Integral Setup <==

  DFHelper Memory: AOs need 0.014 GiB; user supplied 83.614 GiB. Using in-core AOs.

  ==> MemDFJK: Density-Fitted J/K Matrices <==

    J tasked:                   Yes
    K tasked:                   Yes
    wK tasked:                   No
    OpenMP threads:              28
    Memory [MiB]:             85621
    Algorithm:                 Core
    Schwarz Cutoff:           1E-12
    Mask sparsity (%):       0.0000
    Fitting Condition:        1E-10

   => Auxiliary Basis Set <=

  Basis Set: (DEF2-TZVPPD AUX)
    Blend: DEF2-UNIVERSAL-JKFIT
    Number of shells: 55
    Number of basis functions: 273
    Number of Cartesian functions: 404
    Spherical Harmonics?: true
    Max angular momentum: 6

  Cached 100.0% of DFT collocation blocks in 0.205 [GiB].

  Minimum eigenvalue in the overlap matrix is 3.3162039647E-03.
  Reciprocal condition number of the overlap matrix is 7.9297262988E-04.
    Using symmetric orthogonalization.

  ==> Pre-Iterations <==

  SCF Guess: Superposition of Atomic Densities via on-the-fly atomic UHF (no occupation information).

   -------------------------
    Irrep   Nso     Nmo    
   -------------------------
     A1        31      31 
     A2         8       8 
     B1        17      17 
     B2        17      17 
   -------------------------
    Total      73      73
   -------------------------

  ==> Iterations <==

                           Total Energy        Delta E     RMS |[F,P]|

   @DF-RKS iter SAD:  -146.94833524586022   -1.46948e+02   0.00000e+00 
   @DF-RKS iter   1:  -147.20604140027089   -2.57706e-01   8.41912e-03 DIIS
   @DF-RKS iter   2:  -147.19198149249985    1.40599e-02   1.09846e-02 DIIS
   @DF-RKS iter   3:  -147.26488295765242   -7.29015e-02   9.69197e-04 DIIS
   @DF-RKS iter   4:  -147.26543032007217   -5.47362e-04   3.68560e-04 DIIS
   @DF-RKS iter   5:  -147.26555887913673   -1.28559e-04   2.19077e-04 DIIS
   @DF-RKS iter   6:  -147.26559678846746   -3.79093e-05   3.39809e-05 DIIS
   @DF-RKS iter   7:  -147.26560082956280   -4.04110e-06   9.08398e-06 DIIS
   @DF-RKS iter   8:  -147.26560102063286   -1.91070e-07   1.36448e-06 DIIS
   @DF-RKS iter   9:  -147.26560102409491   -3.46205e-09   2.83494e-07 DIIS
   @DF-RKS iter  10:  -147.26560102425134   -1.56433e-10   4.69169e-08 DIIS
   @DF-RKS iter  11:  -147.26560102425302   -1.67688e-12   3.60998e-09 DIIS
  Energy and wave function converged.


  ==> Post-Iterations <==

   Electrons on quadrature grid:
      Ntotal   =   19.9999990104 ; deviation = -9.896e-07 

    Orbital Energies [Eh]
    ---------------------

    Doubly Occupied:                                                      

       1A1    -3.661776     2A1    -2.314280     1B2    -2.308832  
       1B1    -2.308832     3A1    -0.429835     2B1    -0.388277  
       2B2    -0.388277     4A1    -0.381827     1A2    -0.381827  
       5A1    -0.282073  

    Virtual:                                                              

       6A1    -0.052446     3B2     0.022151     3B1     0.022151  
       7A1     0.118844     8A1     0.139583     9A1     0.210985  
       4B1     0.211612     4B2     0.211612     5B2     0.257494  
       5B1     0.257494    10A1     0.433829    11A1     0.445125  
       2A2     0.445126    12A1     0.476642     6B2     0.561634  
       6B1     0.561634    13A1     0.626627     7B1     0.906860  
       7B2     0.906860    14A1     1.111386     3A2     1.572523  
      15A1     1.572524     8B1     1.585488     8B2     1.585488  
       9B1     1.623416     9B2     1.623416    10B1     1.657414  
      10B2     1.657414    16A1     1.682329    17A1     1.852917  
      18A1     2.007381     4A2     2.037158    19A1     2.037158  
      11B1     2.096647    11B2     2.096647    20A1     2.207225  
      21A1     2.592906     5A2     3.157491    22A1     3.157805  
      12B1     3.362252    12B2     3.362252    13B1     3.773472  
      13B2     3.773472    23A1     3.820277    24A1     4.408882  
      14B1     4.607454    14B2     4.607454     6A2     4.620341  
      25A1     4.620344    15B1     4.793631    15B2     4.793631  
      26A1     5.013991    16B1     5.415627    16B2     5.415627  
       7A2     5.416614    27A1     5.416615     8A2     5.419160  
      28A1     5.419160    17B1     5.537012    17B2     5.537012  
      29A1     5.940474    30A1    32.990073    31A1   110.604227  

    Final Occupation by Irrep:
             A1    A2    B1    B2 
    DOCC [     5,    1,    2,    2 ]

  @DF-RKS Final Energy:  -147.26560102425302

   => Energetics <=

    Nuclear Repulsion Energy =              6.2439672540464146
    One-Electron Energy =                -273.3855338394284900
    Two-Electron Energy =                 128.0492119653895031
    DFT Exchange-Correlation Energy =      -8.1732330242604245
    Empirical Dispersion Energy =          -0.0000133800000000
    VV10 Nonlocal Energy =                  0.0000000000000000
    Total Energy =                       -147.2656010242529874

Computation Completed


Properties will be evaluated at   0.000000,   0.000000,   0.000000 [a0]

Properties computed using the SCF density matrix

  Nuclear Dipole Moment: [e a0]
     X:     0.0000      Y:     0.0000      Z:    -2.4746

  Electronic Dipole Moment: [e a0]
     X:     0.0000      Y:     0.0000      Z:     3.6197

  Dipole Moment: [e a0]
     X:     0.0000      Y:     0.0000      Z:     1.1452     Total:     1.1452

  Dipole Moment: [D]
     X:     0.0000      Y:     0.0000      Z:     2.9107     Total:     2.9107


*** tstop() called on compute405.bc4.acrc.priv at Tue Nov  2 10:30:15 2021
Module time:
	user time   =      46.97 seconds =       0.78 minutes
	system time =       2.08 seconds =       0.03 minutes
	total time  =          8 seconds =       0.13 minutes
Total time:
	user time   =      46.97 seconds =       0.78 minutes
	system time =       2.08 seconds =       0.03 minutes
	total time  =          8 seconds =       0.13 minutes

*** tstart() called on compute405.bc4.acrc.priv
*** at Tue Nov  2 10:30:15 2021


         ------------------------------------------------------------
                                   SCF GRAD                          
                          Rob Parrish, Justin Turney,                
                       Andy Simmonett, and Alex Sokolov              
         ------------------------------------------------------------

  ==> Geometry <==

    Molecular point group: c2v
    Full point group: C_inf_v

    Geometry (in Angstrom), charge = 0, multiplicity = 1:

       Center              X                  Y                   Z               Mass       
    ------------   -----------------  -----------------  -----------------  -----------------
         AG           0.000000000000     0.000000000000     0.015038545267   106.905091600000
         H            0.000000000000     0.000000000000    -1.595214454733     1.007825032230

  Nuclear repulsion =    6.243967254046415

  ==> Basis Set <==

  Basis Set: DEF2-TZVPPD
    Blend: DEF2-TZVPPD
    Number of shells: 23
    Number of basis functions: 73
    Number of Cartesian functions: 89
    Spherical Harmonics?: true
    Max angular momentum: 4

  Core potential: DEF2-TZVPPD
    Number of shells: 4
    Number of ECP primitives: 14
    Number of ECP core electrons: 28
    Max angular momentum: 3

  ==> DFJKGrad: Density-Fitted SCF Gradients <==

    Gradient:                    1
    J tasked:                  Yes
    K tasked:                  Yes
    wK tasked:                  No
    OpenMP threads:             28
    Integrals threads:          28
    Memory [MiB]:            85830
    Schwarz Cutoff:          1E-12
    Fitting Condition:       1E-10

   => Auxiliary Basis Set <=

  Basis Set: (DEF2-TZVPPD AUX)
    Blend: DEF2-UNIVERSAL-JKFIT
    Number of shells: 55
    Number of basis functions: 273
    Number of Cartesian functions: 404
    Spherical Harmonics?: true
    Max angular momentum: 6

  ==> DFT Potential <==

   => Composite Functional: MN15-D3BJ <= 

   MN15 Hybrid Meta-GGA Exchange-Correlation Functional

    H. S. Yu, X. He, S. L. Li, and D. G. Truhlar, Chem. Sci. 7, 5032-5051, 2016


    Deriv               =              1
    GGA                 =           TRUE
    Meta                =           TRUE

    Exchange Hybrid     =           TRUE
    MP2 Hybrid          =          FALSE

   => Exchange Functionals <=

    1.0000   XC_HYB_MGGA_X_MN15

   => Exact (HF) Exchange <=

    0.4400               HF 

   => Correlation Functionals <=

    1.0000   XC_MGGA_C_MN15

   => LibXC Density Thresholds  <==

    XC_MGGA_C_MN15:  1.00E-15 
    XC_HYB_MGGA_X_MN15:  1.00E-15 

   => Molecular Quadrature <=

    Radial Scheme          =       TREUTLER
    Pruning Scheme         =           NONE
    Nuclear Scheme         =       TREUTLER

    BS radius alpha        =              1
    Pruning alpha          =              1
    Radial Points          =             75
    Spherical Points       =            302
    Total Points           =          43133
    Total Blocks           =            397
    Max Points             =            254
    Max Functions          =             73
    Weights Tolerance      =       1.00E-15


  -Total Gradient:
     Atom            X                  Y                   Z
    ------   -----------------  -----------------  -----------------
       1       -0.000000000000     0.000000000000    -0.126384148293
       2       -0.000000000000     0.000000000000     0.126430563679


*** tstop() called on compute405.bc4.acrc.priv at Tue Nov  2 10:30:20 2021
Module time:
	user time   =      33.23 seconds =       0.55 minutes
	system time =       4.48 seconds =       0.07 minutes
	total time  =          5 seconds =       0.08 minutes
Total time:
	user time   =      82.02 seconds =       1.37 minutes
	system time =       6.65 seconds =       0.11 minutes
	total time  =         13 seconds =       0.22 minutes


  ==> Adding ECP gradient terms (computed numerically) <==

  -ECP Gradient:
     Atom            X                  Y                   Z
    ------   -----------------  -----------------  -----------------
       1        0.000000000000     0.000000000000     0.127021320602
       2        0.000000000000     0.000000000000    -0.127021320620


  -Total Gradient:
     Atom            X                  Y                   Z
    ------   -----------------  -----------------  -----------------
       1       -0.000000000000     0.000000000000     0.000637172309
       2       -0.000000000000     0.000000000000    -0.000590756942


			-----------------------------------------
			 OPTKING 2.0: for geometry optimizations 
			  - R.A. King,  Bethel University        
			-----------------------------------------
	At level 1: Red. Int., RFO, no backsteps, dynamic trust

	Internal coordinates to be generated automatically.
	Detected frag 1 with atoms:  1 2
	---Fragment 1 Bond Connectivity---
	 1 : 2
	 2 : 1

	---Fragment 1 Geometry and Gradient---
	 AG          0.0000000000        0.0000000000        0.0284187319
	 H           0.0000000000        0.0000000000       -3.0145184308
	            -0.0000000000        0.0000000000        0.0006371723
	            -0.0000000000        0.0000000000       -0.0005907569

	Previous optimization step data not found.  Starting new optimization.

	---Fragment 1 Intrafragment Coordinates---
	 - Coordinate -           - BOHR/RAD -       - ANG/DEG -
	 R(1,2)           =         3.042937	       1.610253

	Current energy   :      -147.2656010243

	Generating empirical Hessian (Schlegel '84) for each fragment.
	Taking RFO optimization step.
	Going to follow RFO solution 1.
	Using RFO vector 1.
	Norm of target step-size    0.00033
	Projected energy change by RFO approximation:        -0.0000001476

	Back-transformation to cartesian coordinates...
	Successfully converged to displaced geometry.

	--- Internal Coordinate Step in ANG or DEG, aJ/ANG or AJ/DEG ---
	 ---------------------------------------------------------------------------
	   Coordinate                Previous        Force       Change         New 
	   ----------                --------       ------       ------       ------
	    1 R(1,2)          =      1.610253    -0.005058    -0.000174     1.610079
	 ---------------------------------------------------------------------------
	Successfully symmetrized geometry.

  ==> Convergence Check <==

  Measures of convergence in internal coordinates in au.
  Criteria marked as inactive (o), active & met (*), and active & unmet ( ).
  --------------------------------------------------------------------------------------------- ~
   Step     Total Energy     Delta E     MAX Force     RMS Force      MAX Disp      RMS Disp    ~
  --------------------------------------------------------------------------------------------- ~
    Convergence Criteria    1.00e-06 *    3.00e-04 *             o    1.20e-03 *             o  ~
  --------------------------------------------------------------------------------------------- ~
      1    -147.26560102   -1.47e+02      6.14e-04      6.14e-04 o    3.28e-04 *    3.28e-04 o  ~
  ---------------------------------------------------------------------------------------------

	Writing optimization data to binary file.
	Structure for next step:
	Cartesian Geometry (in Angstrom)
	   AG     0.0000000000   0.0000000000   0.0149517301
	    H     0.0000000000   0.0000000000  -1.5951276334
			--------------------------
			 OPTKING Finished Execution 
			--------------------------

    Structure for next step:
    Molecular point group: c2v
    Full point group: C_inf_v

    Geometry (in Angstrom), charge = 0, multiplicity = 1:

    AG           0.000000000000     0.000000000000     0.015036923692
    H            0.000000000000     0.000000000000    -1.595042446127


Scratch directory: /tmp/
gradient() will perform analytic gradient computation.

*** tstart() called on compute405.bc4.acrc.priv
*** at Tue Nov  2 10:30:58 2021

   => Loading Basis Set <=

    Name: DEF2-TZVPPD
    Role: ORBITAL
    Keyword: BASIS
    atoms 1 entry AG         line  2174 (ECP: line  3646) file /mnt/storage/home/zw18965/.conda/envs/p4env/share/psi4/basis/def2-tzvppd.gbs 
    atoms 2 entry H          line    14 file /mnt/storage/home/zw18965/.conda/envs/p4env/share/psi4/basis/def2-tzvppd.gbs 

    !!!  WARNING: ECP capability is in beta. Please check occupations closely.  !!!

   => MN15-D3(BJ): Empirical Dispersion <=

    Grimme's -D3 (BJ-damping) Dispersion Correction
    Grimme S.; Ehrlich S.; Goerigk L. (2011), J. Comput. Chem., 32: 1456
    Parametrisation from:    L. Goerigk, A. Hansen, C. Bauer, S. Ehrlich, A. Najibi, S. Grimme, Phys. Chem. Chem. Phys. 19, 32184-32215, 2017

        s6 =       1.000000
        s8 =       2.097100
        a1 =       0.786200
        a2 =       7.592300


         ---------------------------------------------------------
                                   SCF
               by Justin Turney, Rob Parrish, Andy Simmonett
                          and Daniel G. A. Smith
                              RKS Reference
                       28 Threads, 114440 MiB Core
         ---------------------------------------------------------

  ==> Geometry <==

    Molecular point group: c2v
    Full point group: C_inf_v

    Geometry (in Angstrom), charge = 0, multiplicity = 1:

       Center              X                  Y                   Z               Mass       
    ------------   -----------------  -----------------  -----------------  -----------------
         AG           0.000000000000     0.000000000000     0.015036923692   106.905091600000
         H            0.000000000000     0.000000000000    -1.595042446127     1.007825032230

  Running in c2v symmetry.

  Rotational constants: A = ************  B =      6.51316  C =      6.51316 [cm^-1]
  Rotational constants: A = ************  B = 195259.65975  C = 195259.65975 [MHz]
  Nuclear repulsion =    6.244640600456598

  Charge       = 0
  Multiplicity = 1
  Electrons    = 20
  Nalpha       = 10
  Nbeta        = 10

  ==> Algorithm <==

  SCF Algorithm Type is DF.
  DIIS enabled.
  MOM disabled.
  Fractional occupation disabled.
  Guess Type is READ.
  Energy threshold   = 1.00e-08
  Density threshold  = 1.00e-08
  Integral threshold = 1.00e-12

  ==> Primary Basis <==

  Basis Set: DEF2-TZVPPD
    Blend: DEF2-TZVPPD
    Number of shells: 23
    Number of basis functions: 73
    Number of Cartesian functions: 89
    Spherical Harmonics?: true
    Max angular momentum: 4

  Core potential: DEF2-TZVPPD
    Number of shells: 4
    Number of ECP primitives: 14
    Number of ECP core electrons: 28
    Max angular momentum: 3

  ==> DFT Potential <==

   => Composite Functional: MN15-D3BJ <= 

   MN15 Hybrid Meta-GGA Exchange-Correlation Functional

    H. S. Yu, X. He, S. L. Li, and D. G. Truhlar, Chem. Sci. 7, 5032-5051, 2016


    Deriv               =              1
    GGA                 =           TRUE
    Meta                =           TRUE

    Exchange Hybrid     =           TRUE
    MP2 Hybrid          =          FALSE

   => Exchange Functionals <=

    1.0000   XC_HYB_MGGA_X_MN15

   => Exact (HF) Exchange <=

    0.4400               HF 

   => Correlation Functionals <=

    1.0000   XC_MGGA_C_MN15

   => LibXC Density Thresholds  <==

    XC_MGGA_C_MN15:  1.00E-15 
    XC_HYB_MGGA_X_MN15:  1.00E-15 

   => Molecular Quadrature <=

    Radial Scheme          =       TREUTLER
    Pruning Scheme         =           NONE
    Nuclear Scheme         =       TREUTLER

    BS radius alpha        =              1
    Pruning alpha          =              1
    Radial Points          =             75
    Spherical Points       =            302
    Total Points           =          43133
    Total Blocks           =            397
    Max Points             =            254
    Max Functions          =             73
    Weights Tolerance      =       1.00E-15

   => Loading Basis Set <=

    Name: (DEF2-TZVPPD AUX)
    Role: JKFIT
    Keyword: DF_BASIS_SCF
    atoms 1 entry AG         line  4364 file /mnt/storage/home/zw18965/.conda/envs/p4env/share/psi4/basis/def2-universal-jkfit.gbs 
    atoms 2 entry H          line    18 file /mnt/storage/home/zw18965/.conda/envs/p4env/share/psi4/basis/def2-universal-jkfit.gbs 

   => Loading Basis Set <=

    Name: DEF2-TZVPPD
    Role: ORBITAL
    Keyword: BASIS
    atoms 1 entry AG         line  2174 (ECP: line  3646) file /mnt/storage/home/zw18965/.conda/envs/p4env/share/psi4/basis/def2-tzvppd.gbs 
    atoms 2 entry H          line    14 file /mnt/storage/home/zw18965/.conda/envs/p4env/share/psi4/basis/def2-tzvppd.gbs 

    !!!  WARNING: ECP capability is in beta. Please check occupations closely.  !!!

  Reading orbitals from file /tmp/Ag01N0_H.default.14809.180.npy, no projection.

  ==> Integral Setup <==

  DFHelper Memory: AOs need 0.014 GiB; user supplied 83.614 GiB. Using in-core AOs.

  ==> MemDFJK: Density-Fitted J/K Matrices <==

    J tasked:                   Yes
    K tasked:                   Yes
    wK tasked:                   No
    OpenMP threads:              28
    Memory [MiB]:             85621
    Algorithm:                 Core
    Schwarz Cutoff:           1E-12
    Mask sparsity (%):       0.0000
    Fitting Condition:        1E-10

   => Auxiliary Basis Set <=

  Basis Set: (DEF2-TZVPPD AUX)
    Blend: DEF2-UNIVERSAL-JKFIT
    Number of shells: 55
    Number of basis functions: 273
    Number of Cartesian functions: 404
    Spherical Harmonics?: true
    Max angular momentum: 6

  Cached 100.0% of DFT collocation blocks in 0.205 [GiB].

  Minimum eigenvalue in the overlap matrix is 3.3139715801E-03.
  Reciprocal condition number of the overlap matrix is 7.9241558500E-04.
    Using symmetric orthogonalization.

  ==> Pre-Iterations <==

  SCF Guess: Orbitals guess was supplied from a previous computation.

   -------------------------------------------------------
    Irrep   Nso     Nmo     Nalpha   Nbeta   Ndocc  Nsocc
   -------------------------------------------------------
     A1        31      31       5       5       5       0
     A2         8       8       1       1       1       0
     B1        17      17       2       2       2       0
     B2        17      17       2       2       2       0
   -------------------------------------------------------
    Total      73      73      10      10      10       0
   -------------------------------------------------------

  ==> Iterations <==

                           Total Energy        Delta E     RMS |[F,P]|

   @DF-RKS iter   0:  -147.26562305334568   -1.47266e+02   6.64603e-06 
   @DF-RKS iter   1:  -147.26560121116339    2.18422e-05   8.52958e-07 DIIS
   @DF-RKS iter   2:  -147.26560121126315   -9.97602e-11   9.35568e-07 DIIS
   @DF-RKS iter   3:  -147.26560121169447   -4.31328e-10   9.69111e-08 DIIS
   @DF-RKS iter   4:  -147.26560121170175   -7.27596e-12   6.04496e-08 DIIS
   @DF-RKS iter   5:  -147.26560121170490   -3.15481e-12   2.72824e-08 DIIS
   @DF-RKS iter   6:  -147.26560121170576   -8.52651e-13   7.04971e-09 DIIS
  Energy and wave function converged.


  ==> Post-Iterations <==

   Electrons on quadrature grid:
      Ntotal   =   19.9999990115 ; deviation = -9.885e-07 

    Orbital Energies [Eh]
    ---------------------

    Doubly Occupied:                                                      

       1A1    -3.661782     2A1    -2.314290     1B2    -2.308837  
       1B1    -2.308837     3A1    -0.429862     2B2    -0.388284  
       2B1    -0.388284     4A1    -0.381830     1A2    -0.381830  
       5A1    -0.282073  

    Virtual:                                                              

       6A1    -0.052437     3B1     0.022150     3B2     0.022150  
       7A1     0.118842     8A1     0.139594     9A1     0.210992  
       4B2     0.211612     4B1     0.211612     5B1     0.257500  
       5B2     0.257500    10A1     0.433858    11A1     0.445125  
       2A2     0.445125    12A1     0.476636     6B1     0.561646  
       6B2     0.561646    13A1     0.626643     7B1     0.906852  
       7B2     0.906852    14A1     1.111427     3A2     1.572514  
      15A1     1.572516     8B2     1.585487     8B1     1.585487  
       9B1     1.623432     9B2     1.623432    10B1     1.657439  
      10B2     1.657439    16A1     1.682327    17A1     1.852990  
      18A1     2.007320     4A2     2.037155    19A1     2.037155  
      11B1     2.096662    11B2     2.096662    20A1     2.207376  
      21A1     2.592914     5A2     3.157487    22A1     3.157802  
      12B2     3.362371    12B1     3.362371    13B2     3.773497  
      13B1     3.773497    23A1     3.820435    24A1     4.409176  
      14B1     4.607450    14B2     4.607450     6A2     4.620351  
      25A1     4.620354    15B1     4.793682    15B2     4.793682  
      26A1     5.013965    16B2     5.415623    16B1     5.415623  
       7A2     5.416618    27A1     5.416619     8A2     5.419158  
      28A1     5.419158    17B2     5.537157    17B1     5.537157  
      29A1     5.940816    30A1    32.990255    31A1   110.604276  

    Final Occupation by Irrep:
             A1    A2    B1    B2 
    DOCC [     5,    1,    2,    2 ]

  @DF-RKS Final Energy:  -147.26560121170576

   => Energetics <=

    Nuclear Repulsion Energy =              6.2446406004565977
    One-Electron Energy =                -273.3867333412352423
    Two-Electron Energy =                 128.0497496679144547
    DFT Exchange-Correlation Energy =      -8.1732447588415731
    Empirical Dispersion Energy =          -0.0000133800000000
    VV10 Nonlocal Energy =                  0.0000000000000000
    Total Energy =                       -147.2656012117057855

Computation Completed


Properties will be evaluated at   0.000000,   0.000000,   0.000000 [a0]

Properties computed using the SCF density matrix

  Nuclear Dipole Moment: [e a0]
     X:     0.0000      Y:     0.0000      Z:    -2.4743

  Electronic Dipole Moment: [e a0]
     X:     0.0000      Y:     0.0000      Z:     3.6194

  Dipole Moment: [e a0]
     X:     0.0000      Y:     0.0000      Z:     1.1451     Total:     1.1451

  Dipole Moment: [D]
     X:     0.0000      Y:     0.0000      Z:     2.9105     Total:     2.9105


*** tstop() called on compute405.bc4.acrc.priv at Tue Nov  2 10:31:01 2021
Module time:
	user time   =      38.33 seconds =       0.64 minutes
	system time =       1.80 seconds =       0.03 minutes
	total time  =          3 seconds =       0.05 minutes
Total time:
	user time   =     315.92 seconds =       5.27 minutes
	system time =      12.30 seconds =       0.21 minutes
	total time  =         54 seconds =       0.90 minutes

*** tstart() called on compute405.bc4.acrc.priv
*** at Tue Nov  2 10:31:01 2021


         ------------------------------------------------------------
                                   SCF GRAD                          
                          Rob Parrish, Justin Turney,                
                       Andy Simmonett, and Alex Sokolov              
         ------------------------------------------------------------

  ==> Geometry <==

    Molecular point group: c2v
    Full point group: C_inf_v

    Geometry (in Angstrom), charge = 0, multiplicity = 1:

       Center              X                  Y                   Z               Mass       
    ------------   -----------------  -----------------  -----------------  -----------------
         AG           0.000000000000     0.000000000000     0.015036923692   106.905091600000
         H            0.000000000000     0.000000000000    -1.595042446127     1.007825032230

  Nuclear repulsion =    6.244640600456598

  ==> Basis Set <==

  Basis Set: DEF2-TZVPPD
    Blend: DEF2-TZVPPD
    Number of shells: 23
    Number of basis functions: 73
    Number of Cartesian functions: 89
    Spherical Harmonics?: true
    Max angular momentum: 4

  Core potential: DEF2-TZVPPD
    Number of shells: 4
    Number of ECP primitives: 14
    Number of ECP core electrons: 28
    Max angular momentum: 3

  ==> DFJKGrad: Density-Fitted SCF Gradients <==

    Gradient:                    1
    J tasked:                  Yes
    K tasked:                  Yes
    wK tasked:                  No
    OpenMP threads:             28
    Integrals threads:          28
    Memory [MiB]:            85830
    Schwarz Cutoff:          1E-12
    Fitting Condition:       1E-10

   => Auxiliary Basis Set <=

  Basis Set: (DEF2-TZVPPD AUX)
    Blend: DEF2-UNIVERSAL-JKFIT
    Number of shells: 55
    Number of basis functions: 273
    Number of Cartesian functions: 404
    Spherical Harmonics?: true
    Max angular momentum: 6

  ==> DFT Potential <==

   => Composite Functional: MN15-D3BJ <= 

   MN15 Hybrid Meta-GGA Exchange-Correlation Functional

    H. S. Yu, X. He, S. L. Li, and D. G. Truhlar, Chem. Sci. 7, 5032-5051, 2016


    Deriv               =              1
    GGA                 =           TRUE
    Meta                =           TRUE

    Exchange Hybrid     =           TRUE
    MP2 Hybrid          =          FALSE

   => Exchange Functionals <=

    1.0000   XC_HYB_MGGA_X_MN15

   => Exact (HF) Exchange <=

    0.4400               HF 

   => Correlation Functionals <=

    1.0000   XC_MGGA_C_MN15

   => LibXC Density Thresholds  <==

    XC_MGGA_C_MN15:  1.00E-15 
    XC_HYB_MGGA_X_MN15:  1.00E-15 

   => Molecular Quadrature <=

    Radial Scheme          =       TREUTLER
    Pruning Scheme         =           NONE
    Nuclear Scheme         =       TREUTLER

    BS radius alpha        =              1
    Pruning alpha          =              1
    Radial Points          =             75
    Spherical Points       =            302
    Total Points           =          43133
    Total Blocks           =            397
    Max Points             =            254
    Max Functions          =             73
    Weights Tolerance      =       1.00E-15


  -Total Gradient:
     Atom            X                  Y                   Z
    ------   -----------------  -----------------  -----------------
       1       -0.000000000000     0.000000000000    -0.126468535180
       2       -0.000000000000     0.000000000000     0.126514965650


*** tstop() called on compute405.bc4.acrc.priv at Tue Nov  2 10:31:07 2021
Module time:
	user time   =      30.87 seconds =       0.51 minutes
	system time =       2.72 seconds =       0.05 minutes
	total time  =          6 seconds =       0.10 minutes
Total time:
	user time   =     350.26 seconds =       5.84 minutes
	system time =      15.19 seconds =       0.25 minutes
	total time  =         60 seconds =       1.00 minutes


  ==> Adding ECP gradient terms (computed numerically) <==

  -ECP Gradient:
     Atom            X                  Y                   Z
    ------   -----------------  -----------------  -----------------
       1       -0.000000000000     0.000000000000     0.127065200290
       2       -0.000000000000     0.000000000000    -0.127065200302


  -Total Gradient:
     Atom            X                  Y                   Z
    ------   -----------------  -----------------  -----------------
       1       -0.000000000000     0.000000000000     0.000596665110
       2       -0.000000000000     0.000000000000    -0.000550234652


			-----------------------------------------
			 OPTKING 2.0: for geometry optimizations 
			  - R.A. King,  Bethel University        
			-----------------------------------------
	At level 1: Red. Int., RFO, no backsteps, dynamic trust

	Previous internal coordinate definitions found.
	---Fragment 1 Geometry and Gradient---
	 AG          0.0000000000        0.0000000000        0.0284156675
	 H           0.0000000000        0.0000000000       -3.0141933817
	            -0.0000000000        0.0000000000        0.0005966651
	            -0.0000000000        0.0000000000       -0.0005502347

	---Fragment 1 Intrafragment Coordinates---
	 - Coordinate -           - BOHR/RAD -       - ANG/DEG -
	 R(1,2)           =         3.042609	       1.610079

	Current energy   :      -147.2656012117

	Energy change for the previous step:
		Projected    :        -0.0000001476
		Actual       :        -0.0000001875
	Energy ratio indicates good step: Trust radius increased to 1.000e+00.


	Performing BFGS update.
	Previous computed or guess Hessian on step 1.
	Steps to be used in Hessian update: 1
	Taking RFO optimization step.
	Going to follow RFO solution 1.
	Using RFO vector 1.
	Norm of target step-size    0.00066
	Projected energy change by RFO approximation:        -0.0000001608

	Back-transformation to cartesian coordinates...
	Successfully converged to displaced geometry.

	--- Internal Coordinate Step in ANG or DEG, aJ/ANG or AJ/DEG ---
	 ---------------------------------------------------------------------------
	   Coordinate                Previous        Force       Change         New 
	   ----------                --------       ------       ------       ------
	    1 R(1,2)          =      1.610079    -0.004724    -0.000348     1.609731
	 ---------------------------------------------------------------------------
	Successfully symmetrized geometry.

  ==> Convergence Check <==

  Measures of convergence in internal coordinates in au.
  Criteria marked as inactive (o), active & met (*), and active & unmet ( ).
  ---------------------------------------------------------------------------------------------
   Step     Total Energy     Delta E     MAX Force     RMS Force      MAX Disp      RMS Disp   
  ---------------------------------------------------------------------------------------------
    Convergence Criteria    1.00e-06 *    3.00e-04 *             o    1.20e-03 *             o
  ---------------------------------------------------------------------------------------------
      2    -147.26560121   -1.87e-07 *    5.73e-04      5.73e-04 o    6.58e-04 *    6.58e-04 o  ~
  ---------------------------------------------------------------------------------------------

	Writing optimization data to binary file.
	Structure for next step:
	Cartesian Geometry (in Angstrom)
	   AG     0.0000000000   0.0000000000   0.0148627627
	    H     0.0000000000   0.0000000000  -1.5948682790
			--------------------------
			 OPTKING Finished Execution 
			--------------------------

    Structure for next step:
    Molecular point group: c2v
    Full point group: C_inf_v

    Geometry (in Angstrom), charge = 0, multiplicity = 1:

    AG           0.000000000000     0.000000000000     0.015033670630
    H            0.000000000000     0.000000000000    -1.594697377375


Scratch directory: /tmp/
gradient() will perform analytic gradient computation.

*** tstart() called on compute405.bc4.acrc.priv
*** at Tue Nov  2 10:31:45 2021

   => Loading Basis Set <=

    Name: DEF2-TZVPPD
    Role: ORBITAL
    Keyword: BASIS
    atoms 1 entry AG         line  2174 (ECP: line  3646) file /mnt/storage/home/zw18965/.conda/envs/p4env/share/psi4/basis/def2-tzvppd.gbs 
    atoms 2 entry H          line    14 file /mnt/storage/home/zw18965/.conda/envs/p4env/share/psi4/basis/def2-tzvppd.gbs 

    !!!  WARNING: ECP capability is in beta. Please check occupations closely.  !!!

   => MN15-D3(BJ): Empirical Dispersion <=

    Grimme's -D3 (BJ-damping) Dispersion Correction
    Grimme S.; Ehrlich S.; Goerigk L. (2011), J. Comput. Chem., 32: 1456
    Parametrisation from:    L. Goerigk, A. Hansen, C. Bauer, S. Ehrlich, A. Najibi, S. Grimme, Phys. Chem. Chem. Phys. 19, 32184-32215, 2017

        s6 =       1.000000
        s8 =       2.097100
        a1 =       0.786200
        a2 =       7.592300


         ---------------------------------------------------------
                                   SCF
               by Justin Turney, Rob Parrish, Andy Simmonett
                          and Daniel G. A. Smith
                              RKS Reference
                       28 Threads, 114440 MiB Core
         ---------------------------------------------------------

  ==> Geometry <==

    Molecular point group: c2v
    Full point group: C_inf_v

    Geometry (in Angstrom), charge = 0, multiplicity = 1:

       Center              X                  Y                   Z               Mass       
    ------------   -----------------  -----------------  -----------------  -----------------
         AG           0.000000000000     0.000000000000     0.015033670630   106.905091600000
         H            0.000000000000     0.000000000000    -1.594697377375     1.007825032230

  Running in c2v symmetry.

  Rotational constants: A = ************  B =      6.51598  C =      6.51598 [cm^-1]
  Rotational constants: A = ************  B = 195344.17145  C = 195344.17145 [MHz]
  Nuclear repulsion =    6.245991847638952

  Charge       = 0
  Multiplicity = 1
  Electrons    = 20
  Nalpha       = 10
  Nbeta        = 10

  ==> Algorithm <==

  SCF Algorithm Type is DF.
  DIIS enabled.
  MOM disabled.
  Fractional occupation disabled.
  Guess Type is READ.
  Energy threshold   = 1.00e-08
  Density threshold  = 1.00e-08
  Integral threshold = 1.00e-12

  ==> Primary Basis <==

  Basis Set: DEF2-TZVPPD
    Blend: DEF2-TZVPPD
    Number of shells: 23
    Number of basis functions: 73
    Number of Cartesian functions: 89
    Spherical Harmonics?: true
    Max angular momentum: 4

  Core potential: DEF2-TZVPPD
    Number of shells: 4
    Number of ECP primitives: 14
    Number of ECP core electrons: 28
    Max angular momentum: 3

  ==> DFT Potential <==

   => Composite Functional: MN15-D3BJ <= 

   MN15 Hybrid Meta-GGA Exchange-Correlation Functional

    H. S. Yu, X. He, S. L. Li, and D. G. Truhlar, Chem. Sci. 7, 5032-5051, 2016


    Deriv               =              1
    GGA                 =           TRUE
    Meta                =           TRUE

    Exchange Hybrid     =           TRUE
    MP2 Hybrid          =          FALSE

   => Exchange Functionals <=

    1.0000   XC_HYB_MGGA_X_MN15

   => Exact (HF) Exchange <=

    0.4400               HF 

   => Correlation Functionals <=

    1.0000   XC_MGGA_C_MN15

   => LibXC Density Thresholds  <==

    XC_MGGA_C_MN15:  1.00E-15 
    XC_HYB_MGGA_X_MN15:  1.00E-15 

   => Molecular Quadrature <=

    Radial Scheme          =       TREUTLER
    Pruning Scheme         =           NONE
    Nuclear Scheme         =       TREUTLER

    BS radius alpha        =              1
    Pruning alpha          =              1
    Radial Points          =             75
    Spherical Points       =            302
    Total Points           =          43133
    Total Blocks           =            397
    Max Points             =            254
    Max Functions          =             73
    Weights Tolerance      =       1.00E-15

   => Loading Basis Set <=

    Name: (DEF2-TZVPPD AUX)
    Role: JKFIT
    Keyword: DF_BASIS_SCF
    atoms 1 entry AG         line  4364 file /mnt/storage/home/zw18965/.conda/envs/p4env/share/psi4/basis/def2-universal-jkfit.gbs 
    atoms 2 entry H          line    18 file /mnt/storage/home/zw18965/.conda/envs/p4env/share/psi4/basis/def2-universal-jkfit.gbs 

   => Loading Basis Set <=

    Name: DEF2-TZVPPD
    Role: ORBITAL
    Keyword: BASIS
    atoms 1 entry AG         line  2174 (ECP: line  3646) file /mnt/storage/home/zw18965/.conda/envs/p4env/share/psi4/basis/def2-tzvppd.gbs 
    atoms 2 entry H          line    14 file /mnt/storage/home/zw18965/.conda/envs/p4env/share/psi4/basis/def2-tzvppd.gbs 

    !!!  WARNING: ECP capability is in beta. Please check occupations closely.  !!!

  Reading orbitals from file /tmp/Ag01N0_H.default.14809.180.npy, no projection.

  ==> Integral Setup <==

  DFHelper Memory: AOs need 0.014 GiB; user supplied 83.614 GiB. Using in-core AOs.

  ==> MemDFJK: Density-Fitted J/K Matrices <==

    J tasked:                   Yes
    K tasked:                   Yes
    wK tasked:                   No
    OpenMP threads:              28
    Memory [MiB]:             85621
    Algorithm:                 Core
    Schwarz Cutoff:           1E-12
    Mask sparsity (%):       0.0000
    Fitting Condition:        1E-10

   => Auxiliary Basis Set <=

  Basis Set: (DEF2-TZVPPD AUX)
    Blend: DEF2-UNIVERSAL-JKFIT
    Number of shells: 55
    Number of basis functions: 273
    Number of Cartesian functions: 404
    Spherical Harmonics?: true
    Max angular momentum: 6

  Cached 100.0% of DFT collocation blocks in 0.205 [GiB].

  Minimum eigenvalue in the overlap matrix is 3.3094962773E-03.
  Reciprocal condition number of the overlap matrix is 7.9129893053E-04.
    Using symmetric orthogonalization.

  ==> Pre-Iterations <==

  SCF Guess: Orbitals guess was supplied from a previous computation.

   -------------------------------------------------------
    Irrep   Nso     Nmo     Nalpha   Nbeta   Ndocc  Nsocc
   -------------------------------------------------------
     A1        31      31       5       5       5       0
     A2         8       8       1       1       1       0
     B1        17      17       2       2       2       0
     B2        17      17       2       2       2       0
   -------------------------------------------------------
    Total      73      73      10      10      10       0
   -------------------------------------------------------

  ==> Iterations <==

                           Total Energy        Delta E     RMS |[F,P]|

   @DF-RKS iter   0:  -147.26564538591290   -1.47266e+02   1.33405e-05 
   @DF-RKS iter   1:  -147.26560154465608    4.38413e-05   1.70997e-06 DIIS
   @DF-RKS iter   2:  -147.26560154505955   -4.03475e-10   1.87443e-06 DIIS
   @DF-RKS iter   3:  -147.26560154679174   -1.73219e-09   1.94235e-07 DIIS
   @DF-RKS iter   4:  -147.26560154682116   -2.94165e-11   1.21139e-07 DIIS
   @DF-RKS iter   5:  -147.26560154683412   -1.29603e-11   5.48362e-08 DIIS
   @DF-RKS iter   6:  -147.26560154683742   -3.29692e-12   1.41390e-08 DIIS
   @DF-RKS iter   7:  -147.26560154683770   -2.84217e-13   2.42940e-09 DIIS
  Energy and wave function converged.


  ==> Post-Iterations <==

   Electrons on quadrature grid:
      Ntotal   =   19.9999990136 ; deviation = -9.864e-07 

    Orbital Energies [Eh]
    ---------------------

    Doubly Occupied:                                                      

       1A1    -3.661794     2A1    -2.314308     1B1    -2.308845  
       1B2    -2.308845     3A1    -0.429917     2B1    -0.388296  
       2B2    -0.388296     4A1    -0.381835     1A2    -0.381835  
       5A1    -0.282072  

    Virtual:                                                              

       6A1    -0.052420     3B2     0.022148     3B1     0.022148  
       7A1     0.118839     8A1     0.139615     9A1     0.211006  
       4B2     0.211614     4B1     0.211614     5B1     0.257513  
       5B2     0.257513    10A1     0.433915    11A1     0.445124  
       2A2     0.445124    12A1     0.476623     6B2     0.561670  
       6B1     0.561670    13A1     0.626674     7B1     0.906838  
       7B2     0.906838    14A1     1.111509     3A2     1.572496  
      15A1     1.572498     8B2     1.585485     8B1     1.585485  
       9B1     1.623463     9B2     1.623463    10B1     1.657487  
      10B2     1.657487    16A1     1.682322    17A1     1.853135  
      18A1     2.007198     4A2     2.037149    19A1     2.037150  
      11B2     2.096694    11B1     2.096694    20A1     2.207680  
      21A1     2.592930     5A2     3.157480    22A1     3.157795  
      12B1     3.362610    12B2     3.362610    13B1     3.773547  
      13B2     3.773547    23A1     3.820750    24A1     4.409765  
      14B1     4.607443    14B2     4.607443     6A2     4.620372  
      25A1     4.620374    15B1     4.793785    15B2     4.793785  
      26A1     5.013914    16B2     5.415615    16B1     5.415615  
       7A2     5.416625    27A1     5.416626     8A2     5.419153  
      28A1     5.419154    17B1     5.537448    17B2     5.537448  
      29A1     5.941503    30A1    32.990621    31A1   110.604375  

    Final Occupation by Irrep:
             A1    A2    B1    B2 
    DOCC [     5,    1,    2,    2 ]

  @DF-RKS Final Energy:  -147.26560154683770

   => Energetics <=

    Nuclear Repulsion Energy =              6.2459918476389520
    One-Electron Energy =                -273.3891441533185684
    Two-Electron Energy =                 128.0508326373091563
    DFT Exchange-Correlation Energy =      -8.1732684984672463
    Empirical Dispersion Energy =          -0.0000133800000000
    VV10 Nonlocal Energy =                  0.0000000000000000
    Total Energy =                       -147.2656015468377291

Computation Completed


Properties will be evaluated at   0.000000,   0.000000,   0.000000 [a0]

Properties computed using the SCF density matrix

  Nuclear Dipole Moment: [e a0]
     X:     0.0000      Y:     0.0000      Z:    -2.4738

  Electronic Dipole Moment: [e a0]
     X:     0.0000      Y:     0.0000      Z:     3.6187

  Dipole Moment: [e a0]
     X:     0.0000      Y:     0.0000      Z:     1.1449     Total:     1.1449

  Dipole Moment: [D]
     X:     0.0000      Y:     0.0000      Z:     2.9100     Total:     2.9100


*** tstop() called on compute405.bc4.acrc.priv at Tue Nov  2 10:31:48 2021
Module time:
	user time   =      34.29 seconds =       0.57 minutes
	system time =       1.18 seconds =       0.02 minutes
	total time  =          3 seconds =       0.05 minutes
Total time:
	user time   =     582.20 seconds =       9.70 minutes
	system time =      20.48 seconds =       0.34 minutes
	total time  =        101 seconds =       1.68 minutes

*** tstart() called on compute405.bc4.acrc.priv
*** at Tue Nov  2 10:31:48 2021


         ------------------------------------------------------------
                                   SCF GRAD                          
                          Rob Parrish, Justin Turney,                
                       Andy Simmonett, and Alex Sokolov              
         ------------------------------------------------------------

  ==> Geometry <==

    Molecular point group: c2v
    Full point group: C_inf_v

    Geometry (in Angstrom), charge = 0, multiplicity = 1:

       Center              X                  Y                   Z               Mass       
    ------------   -----------------  -----------------  -----------------  -----------------
         AG           0.000000000000     0.000000000000     0.015033670630   106.905091600000
         H            0.000000000000     0.000000000000    -1.594697377375     1.007825032230

  Nuclear repulsion =    6.245991847638952

  ==> Basis Set <==

  Basis Set: DEF2-TZVPPD
    Blend: DEF2-TZVPPD
    Number of shells: 23
    Number of basis functions: 73
    Number of Cartesian functions: 89
    Spherical Harmonics?: true
    Max angular momentum: 4

  Core potential: DEF2-TZVPPD
    Number of shells: 4
    Number of ECP primitives: 14
    Number of ECP core electrons: 28
    Max angular momentum: 3

  ==> DFJKGrad: Density-Fitted SCF Gradients <==

    Gradient:                    1
    J tasked:                  Yes
    K tasked:                  Yes
    wK tasked:                  No
    OpenMP threads:             28
    Integrals threads:          28
    Memory [MiB]:            85830
    Schwarz Cutoff:          1E-12
    Fitting Condition:       1E-10

   => Auxiliary Basis Set <=

  Basis Set: (DEF2-TZVPPD AUX)
    Blend: DEF2-UNIVERSAL-JKFIT
    Number of shells: 55
    Number of basis functions: 273
    Number of Cartesian functions: 404
    Spherical Harmonics?: true
    Max angular momentum: 6

  ==> DFT Potential <==

   => Composite Functional: MN15-D3BJ <= 

   MN15 Hybrid Meta-GGA Exchange-Correlation Functional

    H. S. Yu, X. He, S. L. Li, and D. G. Truhlar, Chem. Sci. 7, 5032-5051, 2016


    Deriv               =              1
    GGA                 =           TRUE
    Meta                =           TRUE

    Exchange Hybrid     =           TRUE
    MP2 Hybrid          =          FALSE

   => Exchange Functionals <=

    1.0000   XC_HYB_MGGA_X_MN15

   => Exact (HF) Exchange <=

    0.4400               HF 

   => Correlation Functionals <=

    1.0000   XC_MGGA_C_MN15

   => LibXC Density Thresholds  <==

    XC_MGGA_C_MN15:  1.00E-15 
    XC_HYB_MGGA_X_MN15:  1.00E-15 

   => Molecular Quadrature <=

    Radial Scheme          =       TREUTLER
    Pruning Scheme         =           NONE
    Nuclear Scheme         =       TREUTLER

    BS radius alpha        =              1
    Pruning alpha          =              1
    Radial Points          =             75
    Spherical Points       =            302
    Total Points           =          43133
    Total Blocks           =            397
    Max Points             =            254
    Max Functions          =             73
    Weights Tolerance      =       1.00E-15


  -Total Gradient:
     Atom            X                  Y                   Z
    ------   -----------------  -----------------  -----------------
       1       -0.000000000000     0.000000000000    -0.126637991807
       2       -0.000000000000     0.000000000000     0.126684452578


*** tstop() called on compute405.bc4.acrc.priv at Tue Nov  2 10:31:54 2021
Module time:
	user time   =      31.29 seconds =       0.52 minutes
	system time =       1.82 seconds =       0.03 minutes
	total time  =          6 seconds =       0.10 minutes
Total time:
	user time   =     617.23 seconds =      10.29 minutes
	system time =      22.46 seconds =       0.37 minutes
	total time  =        107 seconds =       1.78 minutes


  ==> Adding ECP gradient terms (computed numerically) <==

  -ECP Gradient:
     Atom            X                  Y                   Z
    ------   -----------------  -----------------  -----------------
       1        0.000000000000    -0.000000000000     0.127153272196
       2        0.000000000000    -0.000000000000    -0.127153272175


  -Total Gradient:
     Atom            X                  Y                   Z
    ------   -----------------  -----------------  -----------------
       1       -0.000000000000    -0.000000000000     0.000515280388
       2       -0.000000000000    -0.000000000000    -0.000468819597


			-----------------------------------------
			 OPTKING 2.0: for geometry optimizations 
			  - R.A. King,  Bethel University        
			-----------------------------------------
	At level 1: Red. Int., RFO, no backsteps, dynamic trust

	Previous internal coordinate definitions found.
	---Fragment 1 Geometry and Gradient---
	 AG          0.0000000000        0.0000000000        0.0284095202
	 H           0.0000000000        0.0000000000       -3.0135412962
	            -0.0000000000       -0.0000000000        0.0005152804
	            -0.0000000000       -0.0000000000       -0.0004688196

	---Fragment 1 Intrafragment Coordinates---
	 - Coordinate -           - BOHR/RAD -       - ANG/DEG -
	 R(1,2)           =         3.041951	       1.609731

	Current energy   :      -147.2656015468

	Energy change for the previous step:
		Projected    :        -0.0000001608
		Actual       :        -0.0000003351

	Performing BFGS update.
	Previous computed or guess Hessian on step 1.
	Denominators (dg)(dq) or (dq)(dq) are very small.
	 Skipping Hessian update for step 2.
	Steps to be used in Hessian update: 1
	Taking RFO optimization step.
	Going to follow RFO solution 1.
	Using RFO vector 1.
	Norm of target step-size    0.00398
	Projected energy change by RFO approximation:         0.0000059647

	Back-transformation to cartesian coordinates...
	Successfully converged to displaced geometry.

	--- Internal Coordinate Step in ANG or DEG, aJ/ANG or AJ/DEG ---
	 ---------------------------------------------------------------------------
	   Coordinate                Previous        Force       Change         New 
	   ----------                --------       ------       ------       ------
	    1 R(1,2)          =      1.609731    -0.004054    -0.002107     1.607624
	 ---------------------------------------------------------------------------
	Successfully symmetrized geometry.

  ==> Convergence Check <==

  Measures of convergence in internal coordinates in au.
  Criteria marked as inactive (o), active & met (*), and active & unmet ( ).
  ---------------------------------------------------------------------------------------------
   Step     Total Energy     Delta E     MAX Force     RMS Force      MAX Disp      RMS Disp   
  ---------------------------------------------------------------------------------------------
    Convergence Criteria    1.00e-06 *    3.00e-04 *             o    1.20e-03 *             o
  ---------------------------------------------------------------------------------------------
      3    -147.26560155   -3.35e-07 *    4.92e-04      4.92e-04 o    3.98e-03      3.98e-03 o  ~
  ---------------------------------------------------------------------------------------------

	Writing optimization data to binary file.
	Structure for next step:
	Cartesian Geometry (in Angstrom)
	   AG     0.0000000000   0.0000000000   0.0139803827
	    H     0.0000000000   0.0000000000  -1.5936440833
			--------------------------
			 OPTKING Finished Execution 
			--------------------------

    Structure for next step:
    Molecular point group: c2v
    Full point group: C_inf_v

    Geometry (in Angstrom), charge = 0, multiplicity = 1:

    AG           0.000000000000     0.000000000000     0.015013996806
    H            0.000000000000     0.000000000000    -1.592610475478


Scratch directory: /tmp/
gradient() will perform analytic gradient computation.

*** tstart() called on compute405.bc4.acrc.priv
*** at Tue Nov  2 10:32:32 2021

   => Loading Basis Set <=

    Name: DEF2-TZVPPD
    Role: ORBITAL
    Keyword: BASIS
    atoms 1 entry AG         line  2174 (ECP: line  3646) file /mnt/storage/home/zw18965/.conda/envs/p4env/share/psi4/basis/def2-tzvppd.gbs 
    atoms 2 entry H          line    14 file /mnt/storage/home/zw18965/.conda/envs/p4env/share/psi4/basis/def2-tzvppd.gbs 

    !!!  WARNING: ECP capability is in beta. Please check occupations closely.  !!!

   => MN15-D3(BJ): Empirical Dispersion <=

    Grimme's -D3 (BJ-damping) Dispersion Correction
    Grimme S.; Ehrlich S.; Goerigk L. (2011), J. Comput. Chem., 32: 1456
    Parametrisation from:    L. Goerigk, A. Hansen, C. Bauer, S. Ehrlich, A. Najibi, S. Grimme, Phys. Chem. Chem. Phys. 19, 32184-32215, 2017

        s6 =       1.000000
        s8 =       2.097100
        a1 =       0.786200
        a2 =       7.592300


         ---------------------------------------------------------
                                   SCF
               by Justin Turney, Rob Parrish, Andy Simmonett
                          and Daniel G. A. Smith
                              RKS Reference
                       28 Threads, 114440 MiB Core
         ---------------------------------------------------------

  ==> Geometry <==

    Molecular point group: c2v
    Full point group: C_inf_v

    Geometry (in Angstrom), charge = 0, multiplicity = 1:

       Center              X                  Y                   Z               Mass       
    ------------   -----------------  -----------------  -----------------  -----------------
         AG           0.000000000000     0.000000000000     0.015013996806   106.905091600000
         H            0.000000000000     0.000000000000    -1.592610475478     1.007825032230

  Running in c2v symmetry.

  Rotational constants: A = ************  B =      6.53307  C =      6.53307 [cm^-1]
  Rotational constants: A = ************  B = 195856.45141  C = 195856.45141 [MHz]
  Nuclear repulsion =    6.254176380165123

  Charge       = 0
  Multiplicity = 1
  Electrons    = 20
  Nalpha       = 10
  Nbeta        = 10

  ==> Algorithm <==

  SCF Algorithm Type is DF.
  DIIS enabled.
  MOM disabled.
  Fractional occupation disabled.
  Guess Type is READ.
  Energy threshold   = 1.00e-08
  Density threshold  = 1.00e-08
  Integral threshold = 1.00e-12

  ==> Primary Basis <==

  Basis Set: DEF2-TZVPPD
    Blend: DEF2-TZVPPD
    Number of shells: 23
    Number of basis functions: 73
    Number of Cartesian functions: 89
    Spherical Harmonics?: true
    Max angular momentum: 4

  Core potential: DEF2-TZVPPD
    Number of shells: 4
    Number of ECP primitives: 14
    Number of ECP core electrons: 28
    Max angular momentum: 3

  ==> DFT Potential <==

   => Composite Functional: MN15-D3BJ <= 

   MN15 Hybrid Meta-GGA Exchange-Correlation Functional

    H. S. Yu, X. He, S. L. Li, and D. G. Truhlar, Chem. Sci. 7, 5032-5051, 2016


    Deriv               =              1
    GGA                 =           TRUE
    Meta                =           TRUE

    Exchange Hybrid     =           TRUE
    MP2 Hybrid          =          FALSE

   => Exchange Functionals <=

    1.0000   XC_HYB_MGGA_X_MN15

   => Exact (HF) Exchange <=

    0.4400               HF 

   => Correlation Functionals <=

    1.0000   XC_MGGA_C_MN15

   => LibXC Density Thresholds  <==

    XC_MGGA_C_MN15:  1.00E-15 
    XC_HYB_MGGA_X_MN15:  1.00E-15 

   => Molecular Quadrature <=

    Radial Scheme          =       TREUTLER
    Pruning Scheme         =           NONE
    Nuclear Scheme         =       TREUTLER

    BS radius alpha        =              1
    Pruning alpha          =              1
    Radial Points          =             75
    Spherical Points       =            302
    Total Points           =          43133
    Total Blocks           =            397
    Max Points             =            254
    Max Functions          =             73
    Weights Tolerance      =       1.00E-15

   => Loading Basis Set <=

    Name: (DEF2-TZVPPD AUX)
    Role: JKFIT
    Keyword: DF_BASIS_SCF
    atoms 1 entry AG         line  4364 file /mnt/storage/home/zw18965/.conda/envs/p4env/share/psi4/basis/def2-universal-jkfit.gbs 
    atoms 2 entry H          line    18 file /mnt/storage/home/zw18965/.conda/envs/p4env/share/psi4/basis/def2-universal-jkfit.gbs 

   => Loading Basis Set <=

    Name: DEF2-TZVPPD
    Role: ORBITAL
    Keyword: BASIS
    atoms 1 entry AG         line  2174 (ECP: line  3646) file /mnt/storage/home/zw18965/.conda/envs/p4env/share/psi4/basis/def2-tzvppd.gbs 
    atoms 2 entry H          line    14 file /mnt/storage/home/zw18965/.conda/envs/p4env/share/psi4/basis/def2-tzvppd.gbs 

    !!!  WARNING: ECP capability is in beta. Please check occupations closely.  !!!

  Reading orbitals from file /tmp/Ag01N0_H.default.14809.180.npy, no projection.

  ==> Integral Setup <==

  DFHelper Memory: AOs need 0.014 GiB; user supplied 83.614 GiB. Using in-core AOs.

  ==> MemDFJK: Density-Fitted J/K Matrices <==

    J tasked:                   Yes
    K tasked:                   Yes
    wK tasked:                   No
    OpenMP threads:              28
    Memory [MiB]:             85620
    Algorithm:                 Core
    Schwarz Cutoff:           1E-12
    Mask sparsity (%):       0.0000
    Fitting Condition:        1E-10

   => Auxiliary Basis Set <=

  Basis Set: (DEF2-TZVPPD AUX)
    Blend: DEF2-UNIVERSAL-JKFIT
    Number of shells: 55
    Number of basis functions: 273
    Number of Cartesian functions: 404
    Spherical Harmonics?: true
    Max angular momentum: 6

  Cached 100.0% of DFT collocation blocks in 0.205 [GiB].

  Minimum eigenvalue in the overlap matrix is 3.2825191257E-03.
  Reciprocal condition number of the overlap matrix is 7.8456953665E-04.
    Using symmetric orthogonalization.

  ==> Pre-Iterations <==

  SCF Guess: Orbitals guess was supplied from a previous computation.

   -------------------------------------------------------
    Irrep   Nso     Nmo     Nalpha   Nbeta   Ndocc  Nsocc
   -------------------------------------------------------
     A1        31      31       5       5       5       0
     A2         8       8       1       1       1       0
     B1        17      17       2       2       2       0
     B2        17      17       2       2       2       0
   -------------------------------------------------------
    Total      73      73      10      10      10       0
   -------------------------------------------------------

  ==> Iterations <==

                           Total Energy        Delta E     RMS |[F,P]|

   @DF-RKS iter   0:  -147.26586824406593   -1.47266e+02   8.09066e-05 
   @DF-RKS iter   1:  -147.26560233908657    2.65905e-04   1.03483e-05 DIIS
   @DF-RKS iter   2:  -147.26560235380049   -1.47139e-08   1.13429e-05 DIIS
   @DF-RKS iter   3:  -147.26560241721194   -6.34114e-08   1.17666e-06 DIIS
   @DF-RKS iter   4:  -147.26560241828938   -1.07744e-09   7.33572e-07 DIIS
   @DF-RKS iter   5:  -147.26560241876419   -4.74813e-10   3.32041e-07 DIIS
   @DF-RKS iter   6:  -147.26560241888498   -1.20792e-10   8.54987e-08 DIIS
   @DF-RKS iter   7:  -147.26560241889396   -8.98126e-12   1.46881e-08 DIIS
   @DF-RKS iter   8:  -147.26560241889430   -3.41061e-13   1.35154e-09 DIIS
  Energy and wave function converged.


  ==> Post-Iterations <==

   Electrons on quadrature grid:
      Ntotal   =   19.9999990266 ; deviation = -9.734e-07 

    Orbital Energies [Eh]
    ---------------------

    Doubly Occupied:                                                      

       1A1    -3.661868     2A1    -2.314422     1B2    -2.308895  
       1B1    -2.308895     3A1    -0.430251     2B2    -0.388372  
       2B1    -0.388372     4A1    -0.381865     1A2    -0.381865  
       5A1    -0.282067  

    Virtual:                                                              

       6A1    -0.052318     3B1     0.022139     3B2     0.022139  
       7A1     0.118818     8A1     0.139743     9A1     0.211088  
       4B2     0.211620     4B1     0.211620     5B1     0.257588  
       5B2     0.257588    10A1     0.434265    11A1     0.445115  
       2A2     0.445115    12A1     0.476546     6B1     0.561816  
       6B2     0.561816    13A1     0.626863     7B2     0.906748  
       7B1     0.906748    14A1     1.112004     3A2     1.572390  
      15A1     1.572392     8B1     1.585472     8B2     1.585472  
       9B1     1.623649     9B2     1.623649    10B2     1.657784  
      10B1     1.657784    16A1     1.682293    17A1     1.854012  
      18A1     2.006452     4A2     2.037115    19A1     2.037115  
      11B1     2.096886    11B2     2.096886    20A1     2.209530  
      21A1     2.593023     5A2     3.157438    22A1     3.157754  
      12B1     3.364058    12B2     3.364058    13B2     3.773853  
      13B1     3.773853    23A1     3.822652    24A1     4.413340  
      14B1     4.607399    14B2     4.607399     6A2     4.620497  
      25A1     4.620500    15B1     4.794403    15B2     4.794403  
      26A1     5.013597    16B1     5.415567    16B2     5.415567  
       7A2     5.416673    27A1     5.416674     8A2     5.419127  
      28A1     5.419128    17B1     5.539218    17B2     5.539218  
      29A1     5.945663    30A1    32.992850    31A1   110.604977  

    Final Occupation by Irrep:
             A1    A2    B1    B2 
    DOCC [     5,    1,    2,    2 ]

  @DF-RKS Final Energy:  -147.26560241889430

   => Energetics <=

    Nuclear Repulsion Energy =              6.2541763801651227
    One-Electron Energy =                -273.4037276758984376
    Two-Electron Energy =                 128.0573740376796081
    DFT Exchange-Correlation Energy =      -8.1734117908406070
    Empirical Dispersion Energy =          -0.0000133700000000
    VV10 Nonlocal Energy =                  0.0000000000000000
    Total Energy =                       -147.2656024188943320

Computation Completed


Properties will be evaluated at   0.000000,   0.000000,   0.000000 [a0]

Properties computed using the SCF density matrix

  Nuclear Dipole Moment: [e a0]
     X:     0.0000      Y:     0.0000      Z:    -2.4705

  Electronic Dipole Moment: [e a0]
     X:     0.0000      Y:     0.0000      Z:     3.6144

  Dipole Moment: [e a0]
     X:     0.0000      Y:     0.0000      Z:     1.1438     Total:     1.1438

  Dipole Moment: [D]
     X:     0.0000      Y:     0.0000      Z:     2.9073     Total:     2.9073


*** tstop() called on compute405.bc4.acrc.priv at Tue Nov  2 10:32:35 2021
Module time:
	user time   =      34.27 seconds =       0.57 minutes
	system time =       1.20 seconds =       0.02 minutes
	total time  =          3 seconds =       0.05 minutes
Total time:
	user time   =     848.69 seconds =      14.14 minutes
	system time =      27.97 seconds =       0.47 minutes
	total time  =        148 seconds =       2.47 minutes

*** tstart() called on compute405.bc4.acrc.priv
*** at Tue Nov  2 10:32:35 2021


         ------------------------------------------------------------
                                   SCF GRAD                          
                          Rob Parrish, Justin Turney,                
                       Andy Simmonett, and Alex Sokolov              
         ------------------------------------------------------------

  ==> Geometry <==

    Molecular point group: c2v
    Full point group: C_inf_v

    Geometry (in Angstrom), charge = 0, multiplicity = 1:

       Center              X                  Y                   Z               Mass       
    ------------   -----------------  -----------------  -----------------  -----------------
         AG           0.000000000000     0.000000000000     0.015013996806   106.905091600000
         H            0.000000000000     0.000000000000    -1.592610475478     1.007825032230

  Nuclear repulsion =    6.254176380165123

  ==> Basis Set <==

  Basis Set: DEF2-TZVPPD
    Blend: DEF2-TZVPPD
    Number of shells: 23
    Number of basis functions: 73
    Number of Cartesian functions: 89
    Spherical Harmonics?: true
    Max angular momentum: 4

  Core potential: DEF2-TZVPPD
    Number of shells: 4
    Number of ECP primitives: 14
    Number of ECP core electrons: 28
    Max angular momentum: 3

  ==> DFJKGrad: Density-Fitted SCF Gradients <==

    Gradient:                    1
    J tasked:                  Yes
    K tasked:                  Yes
    wK tasked:                  No
    OpenMP threads:             28
    Integrals threads:          28
    Memory [MiB]:            85830
    Schwarz Cutoff:          1E-12
    Fitting Condition:       1E-10

   => Auxiliary Basis Set <=

  Basis Set: (DEF2-TZVPPD AUX)
    Blend: DEF2-UNIVERSAL-JKFIT
    Number of shells: 55
    Number of basis functions: 273
    Number of Cartesian functions: 404
    Spherical Harmonics?: true
    Max angular momentum: 6

  ==> DFT Potential <==

   => Composite Functional: MN15-D3BJ <= 

   MN15 Hybrid Meta-GGA Exchange-Correlation Functional

    H. S. Yu, X. He, S. L. Li, and D. G. Truhlar, Chem. Sci. 7, 5032-5051, 2016


    Deriv               =              1
    GGA                 =           TRUE
    Meta                =           TRUE

    Exchange Hybrid     =           TRUE
    MP2 Hybrid          =          FALSE

   => Exchange Functionals <=

    1.0000   XC_HYB_MGGA_X_MN15

   => Exact (HF) Exchange <=

    0.4400               HF 

   => Correlation Functionals <=

    1.0000   XC_MGGA_C_MN15

   => LibXC Density Thresholds  <==

    XC_MGGA_C_MN15:  1.00E-15 
    XC_HYB_MGGA_X_MN15:  1.00E-15 

   => Molecular Quadrature <=

    Radial Scheme          =       TREUTLER
    Pruning Scheme         =           NONE
    Nuclear Scheme         =       TREUTLER

    BS radius alpha        =              1
    Pruning alpha          =              1
    Radial Points          =             75
    Spherical Points       =            302
    Total Points           =          43133
    Total Blocks           =            397
    Max Points             =            254
    Max Functions          =             73
    Weights Tolerance      =       1.00E-15


  -Total Gradient:
     Atom            X                  Y                   Z
    ------   -----------------  -----------------  -----------------
       1       -0.000000000000     0.000000000000    -0.127666203171
       2       -0.000000000000     0.000000000000     0.127712848774


*** tstop() called on compute405.bc4.acrc.priv at Tue Nov  2 10:32:40 2021
Module time:
	user time   =      30.32 seconds =       0.51 minutes
	system time =       2.14 seconds =       0.04 minutes
	total time  =          5 seconds =       0.08 minutes
Total time:
	user time   =     882.53 seconds =      14.71 minutes
	system time =      30.26 seconds =       0.50 minutes
	total time  =        153 seconds =       2.55 minutes


  ==> Adding ECP gradient terms (computed numerically) <==

  -ECP Gradient:
     Atom            X                  Y                   Z
    ------   -----------------  -----------------  -----------------
       1        0.000000000000    -0.000000000000     0.127686665013
       2        0.000000000000    -0.000000000000    -0.127686664998


  -Total Gradient:
     Atom            X                  Y                   Z
    ------   -----------------  -----------------  -----------------
       1       -0.000000000000    -0.000000000000     0.000020461842
       2       -0.000000000000    -0.000000000000     0.000026183776


			-----------------------------------------
			 OPTKING 2.0: for geometry optimizations 
			  - R.A. King,  Bethel University        
			-----------------------------------------
	At level 1: Red. Int., RFO, no backsteps, dynamic trust

	Previous internal coordinate definitions found.
	---Fragment 1 Geometry and Gradient---
	 AG          0.0000000000        0.0000000000        0.0283723420
	 H           0.0000000000        0.0000000000       -3.0095976232
	            -0.0000000000       -0.0000000000        0.0000204618
	            -0.0000000000       -0.0000000000        0.0000261838

	---Fragment 1 Intrafragment Coordinates---
	 - Coordinate -           - BOHR/RAD -       - ANG/DEG -
	 R(1,2)           =         3.037970	       1.607624

	Current energy   :      -147.2656024189

	Energy change for the previous step:
		Projected    :         0.0000059647
		Actual       :        -0.0000008721

	Performing BFGS update.
	Previous computed or guess Hessian on step 1.
	Steps to be used in Hessian update: 3 2
	Taking RFO optimization step.
	Going to follow RFO solution 1.
	Using RFO vector 1.
	Norm of target step-size    0.00002
	Projected energy change by RFO approximation:         0.0000000002

	Back-transformation to cartesian coordinates...
	Successfully converged to displaced geometry.

	--- Internal Coordinate Step in ANG or DEG, aJ/ANG or AJ/DEG ---
	 ---------------------------------------------------------------------------
	   Coordinate                Previous        Force       Change         New 
	   ----------                --------       ------       ------       ------
	    1 R(1,2)          =      1.607624     0.000024     0.000012     1.607637
	 ---------------------------------------------------------------------------
	Successfully symmetrized geometry.

  ==> Convergence Check <==

  Measures of convergence in internal coordinates in au.
  Criteria marked as inactive (o), active & met (*), and active & unmet ( ).
  ---------------------------------------------------------------------------------------------
   Step     Total Energy     Delta E     MAX Force     RMS Force      MAX Disp      RMS Disp   
  ---------------------------------------------------------------------------------------------
    Convergence Criteria    1.00e-06 *    3.00e-04 *             o    1.20e-03 *             o
  ---------------------------------------------------------------------------------------------
      4    -147.26560242   -8.72e-07 *    2.86e-06 *    2.86e-06 o    2.30e-05 *    2.30e-05 o  ~
  ---------------------------------------------------------------------------------------------


  **** Optimization is complete! (in 4 steps) ****

  ==> Optimization Summary <==

  Measures of convergence in internal coordinates in au.
  --------------------------------------------------------------------------------------------------------------- ~
   Step         Total Energy             Delta E       MAX Force       RMS Force        MAX Disp        RMS Disp  ~
  --------------------------------------------------------------------------------------------------------------- ~
      1    -147.265601024253   -147.265601024253      0.00061396      0.00061396      0.00032811      0.00032811  ~
      2    -147.265601211706     -0.000000187453      0.00057345      0.00057345      0.00065823      0.00065823  ~
      3    -147.265601546838     -0.000000335132      0.00049205      0.00049205      0.00398085      0.00398085  ~
      4    -147.265602418894     -0.000000872057      0.00000286      0.00000286      0.00002303      0.00002303  ~
  --------------------------------------------------------------------------------------------------------------- ~

	Writing optimization data to binary file.
	Final energy is   -147.2656024188943
	Final (previous) structure:
	Cartesian Geometry (in Angstrom)
	   AG     0.0000000000   0.0000000000   0.0150139967
	    H     0.0000000000   0.0000000000  -1.5926104692
	Saving final (previous) structure.
	Cleaning optimization helper files.
			--------------------------
			 OPTKING Finished Execution 
			--------------------------

    Final optimized geometry and variables:
    Molecular point group: c2v
    Full point group: C_inf_v

    Geometry (in Angstrom), charge = 0, multiplicity = 1:

    AG           0.000000000000     0.000000000000     0.015013996806
    H            0.000000000000     0.000000000000    -1.592610475478

	Removing binary optimization data file.
	Cleaning optimization helper files.

Scratch directory: /tmp/
gradient() will perform analytic gradient computation.

*** tstart() called on compute405.bc4.acrc.priv
*** at Tue Nov  2 10:33:18 2021

   => Loading Basis Set <=

    Name: DEF2-TZVPPD
    Role: ORBITAL
    Keyword: BASIS
    atoms 1 entry AG         line  2174 (ECP: line  3646) file /mnt/storage/home/zw18965/.conda/envs/p4env/share/psi4/basis/def2-tzvppd.gbs 
    atoms 2 entry H          line    14 file /mnt/storage/home/zw18965/.conda/envs/p4env/share/psi4/basis/def2-tzvppd.gbs 

    !!!  WARNING: ECP capability is in beta. Please check occupations closely.  !!!

   => MN15-D3(BJ): Empirical Dispersion <=

    Grimme's -D3 (BJ-damping) Dispersion Correction
    Grimme S.; Ehrlich S.; Goerigk L. (2011), J. Comput. Chem., 32: 1456
    Parametrisation from:    L. Goerigk, A. Hansen, C. Bauer, S. Ehrlich, A. Najibi, S. Grimme, Phys. Chem. Chem. Phys. 19, 32184-32215, 2017

        s6 =       1.000000
        s8 =       2.097100
        a1 =       0.786200
        a2 =       7.592300


         ---------------------------------------------------------
                                   SCF
               by Justin Turney, Rob Parrish, Andy Simmonett
                          and Daniel G. A. Smith
                              RKS Reference
                       28 Threads, 114440 MiB Core
         ---------------------------------------------------------

  ==> Geometry <==

    Molecular point group: c2v
    Full point group: C_inf_v

[...]
  Rotational constants: A = ************  B = 195212.83462  C = 195212.83462 [MHz]
  Nuclear repulsion =    6.243891793401634

  Charge       = 0
  Multiplicity = 1
  Electrons    = 20
  Nalpha       = 10
  Nbeta        = 10

  ==> Algorithm <==

  SCF Algorithm Type is DF.
  DIIS enabled.
  MOM disabled.
  Fractional occupation disabled.
  Guess Type is SAD.
  Energy threshold   = 1.00e-08
  Density threshold  = 1.00e-08
  Integral threshold = 1.00e-12

  ==> Primary Basis <==

  Basis Set: DEF2-TZVPPD
    Blend: DEF2-TZVPPD
    Number of shells: 23
    Number of basis functions: 73
    Number of Cartesian functions: 89
    Spherical Harmonics?: true
    Max angular momentum: 4

  Core potential: DEF2-TZVPPD
    Number of shells: 4
    Number of ECP primitives: 14
    Number of ECP core electrons: 28
    Max angular momentum: 3

  ==> DFT Potential <==

   => Composite Functional: MN15-D3BJ <= 

   MN15 Hybrid Meta-GGA Exchange-Correlation Functional

    H. S. Yu, X. He, S. L. Li, and D. G. Truhlar, Chem. Sci. 7, 5032-5051, 2016


    Deriv               =              1
    GGA                 =           TRUE
    Meta                =           TRUE

    Exchange Hybrid     =           TRUE
    MP2 Hybrid          =          FALSE

   => Exchange Functionals <=

    1.0000   XC_HYB_MGGA_X_MN15

   => Exact (HF) Exchange <=

    0.4400               HF 

   => Correlation Functionals <=

    1.0000   XC_MGGA_C_MN15

   => LibXC Density Thresholds  <==

    XC_MGGA_C_MN15:  1.00E-15 
    XC_HYB_MGGA_X_MN15:  1.00E-15 

   => Molecular Quadrature <=

    Radial Scheme          =       TREUTLER
    Pruning Scheme         =           NONE
    Nuclear Scheme         =       TREUTLER

    BS radius alpha        =              1
    Pruning alpha          =              1
    Radial Points          =             75
    Spherical Points       =            302
    Total Points           =          43133
    Total Blocks           =            397
    Max Points             =            254
    Max Functions          =             73
    Weights Tolerance      =       1.00E-15

   => Loading Basis Set <=

    Name: (DEF2-TZVPPD AUX)
    Role: JKFIT
    Keyword: DF_BASIS_SCF
    atoms 1 entry AG         line  4364 file /mnt/storage/home/zw18965/.conda/envs/p4env/share/psi4/basis/def2-universal-jkfit.gbs 
    atoms 2 entry H          line    18 file /mnt/storage/home/zw18965/.conda/envs/p4env/share/psi4/basis/def2-universal-jkfit.gbs 

  ==> Integral Setup <==

  DFHelper Memory: AOs need 0.014 GiB; user supplied 83.614 GiB. Using in-core AOs.

  ==> MemDFJK: Density-Fitted J/K Matrices <==

    J tasked:                   Yes
    K tasked:                   Yes
    wK tasked:                   No
    OpenMP threads:              28
    Memory [MiB]:             85621
    Algorithm:                 Core
    Schwarz Cutoff:           1E-12
    Mask sparsity (%):       0.0000
    Fitting Condition:        1E-10

   => Auxiliary Basis Set <=

  Basis Set: (DEF2-TZVPPD AUX)
    Blend: DEF2-UNIVERSAL-JKFIT
    Number of shells: 55
    Number of basis functions: 273
    Number of Cartesian functions: 404
    Spherical Harmonics?: true
    Max angular momentum: 6

  Cached 100.0% of DFT collocation blocks in 0.205 [GiB].

  Minimum eigenvalue in the overlap matrix is 3.3164542381E-03.
  Reciprocal condition number of the overlap matrix is 7.9303508170E-04.
    Using symmetric orthogonalization.

  ==> Pre-Iterations <==

  SCF Guess: Superposition of Atomic Densities via on-the-fly atomic UHF (no occupation information).

   -------------------------
    Irrep   Nso     Nmo    
   -------------------------
     A1        31      31 
     A2         8       8 
     B1        17      17 
     B2        17      17 
   -------------------------
    Total      73      73
   -------------------------

  ==> Iterations <==

                           Total Energy        Delta E     RMS |[F,P]|

   @DF-RKS iter SAD:  -146.94807787451575   -1.46948e+02   0.00000e+00 
   @DF-RKS iter   1:  -147.20605483746317   -2.57977e-01   8.41909e-03 DIIS
   @DF-RKS iter   2:  -147.19198466512609    1.40702e-02   1.09850e-02 DIIS
   @DF-RKS iter   3:  -147.26488320822162   -7.28985e-02   9.68961e-04 DIIS
   @DF-RKS iter   4:  -147.26543037192451   -5.47164e-04   3.68452e-04 DIIS
   @DF-RKS iter   5:  -147.26555887814015   -1.28506e-04   2.19002e-04 DIIS
   @DF-RKS iter   6:  -147.26559676914016   -3.78910e-05   3.39743e-05 DIIS
   @DF-RKS iter   7:  -147.26560080794832   -4.03881e-06   9.07873e-06 DIIS
   @DF-RKS iter   8:  -147.26560099883173   -1.90883e-07   1.36324e-06 DIIS
   @DF-RKS iter   9:  -147.26560100228843   -3.45671e-09   2.83318e-07 DIIS
   @DF-RKS iter  10:  -147.26560100244470   -1.56263e-10   4.69060e-08 DIIS
   @DF-RKS iter  11:  -147.26560100244640   -1.70530e-12   3.60914e-09 DIIS
  Energy and wave function converged.


  ==> Post-Iterations <==

   Electrons on quadrature grid:
      Ntotal   =   19.9999990103 ; deviation = -9.897e-07 

    Orbital Energies [Eh]
    ---------------------

    Doubly Occupied:                                                      

       1A1    -3.661775     2A1    -2.314279     1B1    -2.308832  
       1B2    -2.308832     3A1    -0.429832     2B2    -0.388277  
       2B1    -0.388277     4A1    -0.381827     1A2    -0.381827  
       5A1    -0.282073  

    Virtual:                                                              

       6A1    -0.052447     3B1     0.022151     3B2     0.022151  
       7A1     0.118844     8A1     0.139582     9A1     0.210984  
       4B2     0.211612     4B1     0.211612     5B1     0.257493  
       5B2     0.257493    10A1     0.433825    11A1     0.445126  
       2A2     0.445126    12A1     0.476643     6B1     0.561632  
       6B2     0.561632    13A1     0.626626     7B2     0.906861  
       7B1     0.906861    14A1     1.111382     3A2     1.572524  
      15A1     1.572525     8B2     1.585488     8B1     1.585488  
       9B2     1.623414     9B1     1.623414    10B2     1.657412  
      10B1     1.657412    16A1     1.682330    17A1     1.852909  
      18A1     2.007388     4A2     2.037158    19A1     2.037158  
      11B2     2.096645    11B1     2.096645    20A1     2.207208  
      21A1     2.592906     5A2     3.157491    22A1     3.157806  
      12B2     3.362239    12B1     3.362239    13B2     3.773469  
      13B1     3.773469    23A1     3.820260    24A1     4.408849  
      14B2     4.607454    14B1     4.607454     6A2     4.620340  
      25A1     4.620342    15B2     4.793625    15B1     4.793625  
      26A1     5.013993    16B1     5.415627    16B2     5.415627  
       7A2     5.416614    27A1     5.416615     8A2     5.419160  
      28A1     5.419160    17B2     5.536996    17B1     5.536996  
      29A1     5.940435    30A1    32.990053    31A1   110.604221  

    Final Occupation by Irrep:
             A1    A2    B1    B2 
    DOCC [     5,    1,    2,    2 ]

  @DF-RKS Final Energy:  -147.26560100244640

   => Energetics <=

    Nuclear Repulsion Energy =              6.2438917934016338
    One-Electron Energy =                -273.3853992831644177
    Two-Electron Energy =                 128.0491515702235006
    DFT Exchange-Correlation Energy =      -8.1732317029071435
    Empirical Dispersion Energy =          -0.0000133800000000
    VV10 Nonlocal Energy =                  0.0000000000000000
    Total Energy =                       -147.2656010024464308

Computation Completed


Properties will be evaluated at   0.000000,   0.000000,   0.000000 [a0]

Properties computed using the SCF density matrix

  Nuclear Dipole Moment: [e a0]
     X:     0.0000      Y:     0.0000      Z:    -2.4746

  Electronic Dipole Moment: [e a0]
     X:     0.0000      Y:     0.0000      Z:     3.6198

  Dipole Moment: [e a0]
     X:     0.0000      Y:     0.0000      Z:     1.1452     Total:     1.1452

  Dipole Moment: [D]
     X:     0.0000      Y:     0.0000      Z:     2.9107     Total:     2.9107


*** tstop() called on compute405.bc4.acrc.priv at Tue Nov  2 10:35:43 2021
Module time:
	user time   =      46.95 seconds =       0.78 minutes
	system time =       1.20 seconds =       0.02 minutes
	total time  =          5 seconds =       0.08 minutes
Total time:
	user time   =    1958.59 seconds =      32.64 minutes
	system time =      54.95 seconds =       0.92 minutes
	total time  =        336 seconds =       5.60 minutes

*** tstart() called on compute405.bc4.acrc.priv
*** at Tue Nov  2 10:35:43 2021


         ------------------------------------------------------------
                                   SCF GRAD                          
                          Rob Parrish, Justin Turney,                
                       Andy Simmonett, and Alex Sokolov              
         ------------------------------------------------------------

  ==> Geometry <==

    Molecular point group: c2v
    Full point group: C_inf_v

    Geometry (in Angstrom), charge = 0, multiplicity = 1:

       Center              X                  Y                   Z               Mass       
    ------------   -----------------  -----------------  -----------------  -----------------
         AG           0.000000000000     0.000000000000     0.015038727015   106.905091600000
         H            0.000000000000     0.000000000000    -1.595233733721     1.007825032230

  Nuclear repulsion =    6.243891793401634

  ==> Basis Set <==

  Basis Set: DEF2-TZVPPD
    Blend: DEF2-TZVPPD
    Number of shells: 23
    Number of basis functions: 73
    Number of Cartesian functions: 89
    Spherical Harmonics?: true
    Max angular momentum: 4

  Core potential: DEF2-TZVPPD
    Number of shells: 4
    Number of ECP primitives: 14
    Number of ECP core electrons: 28
    Max angular momentum: 3

  ==> DFJKGrad: Density-Fitted SCF Gradients <==

    Gradient:                    1
    J tasked:                  Yes
    K tasked:                  Yes
    wK tasked:                  No
    OpenMP threads:             28
    Integrals threads:          28
    Memory [MiB]:            85830
    Schwarz Cutoff:          1E-12
    Fitting Condition:       1E-10

   => Auxiliary Basis Set <=

  Basis Set: (DEF2-TZVPPD AUX)
    Blend: DEF2-UNIVERSAL-JKFIT
    Number of shells: 55
    Number of basis functions: 273
    Number of Cartesian functions: 404
    Spherical Harmonics?: true
    Max angular momentum: 6

  ==> DFT Potential <==

   => Composite Functional: MN15-D3BJ <= 

   MN15 Hybrid Meta-GGA Exchange-Correlation Functional

    H. S. Yu, X. He, S. L. Li, and D. G. Truhlar, Chem. Sci. 7, 5032-5051, 2016


    Deriv               =              1
    GGA                 =           TRUE
    Meta                =           TRUE

    Exchange Hybrid     =           TRUE
    MP2 Hybrid          =          FALSE

   => Exchange Functionals <=

    1.0000   XC_HYB_MGGA_X_MN15

   => Exact (HF) Exchange <=

    0.4400               HF 

   => Correlation Functionals <=

    1.0000   XC_MGGA_C_MN15

   => LibXC Density Thresholds  <==

    XC_MGGA_C_MN15:  1.00E-15 
    XC_HYB_MGGA_X_MN15:  1.00E-15 

   => Molecular Quadrature <=

    Radial Scheme          =       TREUTLER
    Pruning Scheme         =           NONE
    Nuclear Scheme         =       TREUTLER

    BS radius alpha        =              1
    Pruning alpha          =              1
    Radial Points          =             75
    Spherical Points       =            302
    Total Points           =          43133
    Total Blocks           =            397
    Max Points             =            254
    Max Functions          =             73
    Weights Tolerance      =       1.00E-15


  -Total Gradient:
     Atom            X                  Y                   Z
    ------   -----------------  -----------------  -----------------
       1       -0.000000000000     0.000000000000    -0.126374688408
       2       -0.000000000000     0.000000000000     0.126421102105


*** tstop() called on compute405.bc4.acrc.priv at Tue Nov  2 10:35:48 2021
Module time:
	user time   =      30.13 seconds =       0.50 minutes
	system time =       1.08 seconds =       0.02 minutes
	total time  =          5 seconds =       0.08 minutes
Total time:
	user time   =    1991.99 seconds =      33.20 minutes
	system time =      56.17 seconds =       0.94 minutes
	total time  =        341 seconds =       5.68 minutes


  ==> Adding ECP gradient terms (computed numerically) <==

  -ECP Gradient:
     Atom            X                  Y                   Z
    ------   -----------------  -----------------  -----------------
       1       -0.000000000000     0.000000000000     0.127016403075
       2       -0.000000000000     0.000000000000    -0.127016403075


  -Total Gradient:
     Atom            X                  Y                   Z
    ------   -----------------  -----------------  -----------------
       1       -0.000000000000     0.000000000000     0.000641714667
       2       -0.000000000000     0.000000000000    -0.000595300970


         ----------------------------------------------------------
                                   FINDIF
                     R. A. King and Jonathon Misiewicz
         ---------------------------------------------------------

  Computing second-derivative from gradients using projected, 
  symmetry-adapted, cartesian coordinates.

  3 gradients passed in, including the reference geometry.
  Generating complete list of displacements from unique ones.


-------------------------------------------------------------


  ==> Harmonic Vibrational Analysis <==

  non-mass-weighted Hessian:       Symmetric? True   Hermitian? True   Lin Dep Dim?  5 (0)
  projection of translations (True) and rotations (True) removed 5 degrees of freedom (5)
  total projector:                 Symmetric? True   Hermitian? True   Lin Dep Dim?  5 (5)
  mass-weighted Hessian:           Symmetric? True   Hermitian? True   Lin Dep Dim?  5 (0)
  pre-proj  low-frequency mode:    0.0000i [cm^-1]
  pre-proj  low-frequency mode:    0.0000  [cm^-1]
  pre-proj  low-frequency mode:    0.0000  [cm^-1]
  pre-proj  low-frequency mode:    0.0000  [cm^-1]
  pre-proj  low-frequency mode:    0.0000  [cm^-1]
  pre-proj  all modes:['0.0000i' '0.0000' '0.0000' '0.0000' '0.0000' '1818.3443']
  projected mass-weighted Hessian: Symmetric? True   Hermitian? True   Lin Dep Dim?  5 (5)
  post-proj low-frequency mode:    0.0000  [cm^-1] (TR)
  post-proj low-frequency mode:    0.0000  [cm^-1] (TR)
  post-proj low-frequency mode:    0.0000  [cm^-1] (TR)
  post-proj low-frequency mode:    0.0000  [cm^-1] (TR)
  post-proj low-frequency mode:    0.0000  [cm^-1] (TR)
  post-proj  all modes:['0.0000' '0.0000' '0.0000' '0.0000' '0.0000' '1818.3443']

  Vibration                       6           
  Freq [cm^-1]                1818.3443       
  Irrep                           A1          
  Reduced mass [u]              1.0172        
  Force const [mDyne/A]         1.9816        
  Turning point v=0 [a0]        0.2551        
  RMS dev v=0 [a0 u^1/2]        0.1820        
  Char temp [K]               2616.1925       
  ----------------------------------------------------------------------------------
      1   AG               0.00  0.00 -0.01   
      2   H                0.00  0.00  1.00   

  ==> Thermochemistry Components <==

  Entropy, S
    Electronic S            0.000 [cal/(mol K)]        0.000 [J/(mol K)]       0.00000000 [mEh/K] (multiplicity = 1)
    Translational S        39.945 [cal/(mol K)]      167.130 [J/(mol K)]       0.06365640 [mEh/K] (mol. weight = 107.9129 [u], P = 101325.00 [Pa])
    Rotational S            8.857 [cal/(mol K)]       37.057 [J/(mol K)]       0.01411424 [mEh/K] (symmetry no. = 1)
    Vibrational S           0.003 [cal/(mol K)]        0.013 [J/(mol K)]       0.00000479 [mEh/K]
  Total S                  48.805 [cal/(mol K)]      204.199 [J/(mol K)]       0.07777542 [mEh/K]
  Correction S              0.000 [cal/(mol K)]        0.000 [J/(mol K)]       0.00000000 [mEh/K]

  Constant volume heat capacity, Cv
    Electronic Cv           0.000 [cal/(mol K)]        0.000 [J/(mol K)]       0.00000000 [mEh/K]
    Translational Cv        2.981 [cal/(mol K)]       12.472 [J/(mol K)]       0.00475022 [mEh/K]
    Rotational Cv           1.987 [cal/(mol K)]        8.314 [J/(mol K)]       0.00316681 [mEh/K]
    Vibrational Cv          0.024 [cal/(mol K)]        0.099 [J/(mol K)]       0.00003771 [mEh/K]
  Total Cv                  4.992 [cal/(mol K)]       20.885 [J/(mol K)]       0.00795473 [mEh/K]
  Correction Cv             0.000 [cal/(mol K)]        0.000 [J/(mol K)]       0.00000000 [mEh/K]

  Constant pressure heat capacity, Cp
    Electronic Cp           0.000 [cal/(mol K)]        0.000 [J/(mol K)]       0.00000000 [mEh/K]
    Translational Cp        4.968 [cal/(mol K)]       20.786 [J/(mol K)]       0.00791703 [mEh/K]
    Rotational Cp           1.987 [cal/(mol K)]        8.314 [J/(mol K)]       0.00316681 [mEh/K]
    Vibrational Cp          0.024 [cal/(mol K)]        0.099 [J/(mol K)]       0.00003771 [mEh/K]
  Total Cp                  6.979 [cal/(mol K)]       29.200 [J/(mol K)]       0.01112154 [mEh/K]
  Correction Cp             0.000 [cal/(mol K)]        0.000 [J/(mol K)]       0.00000000 [mEh/K]

  ==> Thermochemistry Energy Analysis <==

  Raw electronic energy, E0
  Total E0, Electronic energy at well bottom at 0 [K]                 -147.26560242 [Eh]

  Zero-point energy, ZPE_vib = Sum_i nu_i / 2
    Electronic ZPE          0.000 [kcal/mol]        0.000 [kJ/mol]       0.00000000 [Eh]
    Translational ZPE       0.000 [kcal/mol]        0.000 [kJ/mol]       0.00000000 [Eh]
    Rotational ZPE          0.000 [kcal/mol]        0.000 [kJ/mol]       0.00000000 [Eh]
    Vibrational ZPE         2.599 [kcal/mol]       10.876 [kJ/mol]       0.00414249 [Eh]         909.172 [cm^-1]
  Correction ZPE            2.599 [kcal/mol]       10.876 [kJ/mol]       0.00414249 [Eh]         909.172 [cm^-1]
  Total ZPE, Electronic energy at 0 [K]                               -147.26145993 [Eh]

  Thermal Energy, E (includes ZPE)
    Electronic E            0.000 [kcal/mol]        0.000 [kJ/mol]       0.00000000 [Eh]
    Translational E         0.889 [kcal/mol]        3.718 [kJ/mol]       0.00141628 [Eh]
    Rotational E            0.592 [kcal/mol]        2.479 [kJ/mol]       0.00094418 [Eh]
    Vibrational E           2.600 [kcal/mol]       10.879 [kJ/mol]       0.00414377 [Eh]
  Correction E              4.081 [kcal/mol]       17.077 [kJ/mol]       0.00650424 [Eh]
  Total E, Electronic energy at  298.15 [K]                           -147.25909818 [Eh]

  Enthalpy, H_trans = E_trans + k_B * T
    Electronic H            0.000 [kcal/mol]        0.000 [kJ/mol]       0.00000000 [Eh]
    Translational H         1.481 [kcal/mol]        6.197 [kJ/mol]       0.00236046 [Eh]
    Rotational H            0.592 [kcal/mol]        2.479 [kJ/mol]       0.00094418 [Eh]
    Vibrational H           2.600 [kcal/mol]       10.879 [kJ/mol]       0.00414377 [Eh]
  Correction H              4.674 [kcal/mol]       19.556 [kJ/mol]       0.00744842 [Eh]
  Total H, Enthalpy at  298.15 [K]                                    -147.25815400 [Eh]

  Gibbs free energy, G = H - T * S
    Electronic G            0.000 [kcal/mol]        0.000 [kJ/mol]       0.00000000 [Eh]
    Translational G       -10.428 [kcal/mol]      -43.632 [kJ/mol]      -0.01661869 [Eh]
    Rotational G           -2.048 [kcal/mol]       -8.570 [kJ/mol]      -0.00326398 [Eh]
    Vibrational G           2.599 [kcal/mol]       10.876 [kJ/mol]       0.00414235 [Eh]
  Correction G             -9.877 [kcal/mol]      -41.326 [kJ/mol]      -0.01574032 [Eh]
  Total G, Free enthalpy at  298.15 [K]                               -147.28134274 [Eh]

    Psi4 stopped on: Tuesday, 02 November 2021 10:36AM
    Psi4 wall time for execution: 0:06:18.40

*** Psi4 exiting successfully. Buy a developer a beer!
