Optimizer: Optimization complete!
 3 displacements needed.
 1 2 3
At level 1: Red. Int., RFO, no backsteps, dynamic trust
At level 1: Red. Int., RFO, no backsteps, dynamic trust
At level 1: Red. Int., RFO, no backsteps, dynamic trust
At level 1: Red. Int., RFO, no backsteps, dynamic trust
 Smith, A. C. Simmonett,
    A. E. DePrince III, E. G. Hohenstein, U. Bozkaya, A. Yu. Sokolov,
    R. Di Remigio, R. M. Richard, J. F. Gonthier, A. M. James,
    H. R. McAlexander, A. Kumar, M. Saitow, X. Wang, B. P. Pritchard,
    P. Verma, H. F. Schaefer III, K. Patkowski, R. A. King, E. F. Valeev,
    F. A. Evangelista, J. M. Turney, T. D. Crawford, and C. D. Sherrill,
    J. Chem. Theory Comput. 13(7) pp 3185--3197 (2017).
    (doi: 10.1021/acs.jctc.7b00174)


                         Additional Contributions by
    P. Kraus, H. Kruse, M. H. Lechner, M. C. Schieber, R. A. Shaw,
    A. Alenaizan, R. Galvelis, Z. L. Glick, S. Lehtola, and J. P. Misiewicz

    -----------------------------------------------------------------------


    Psi4 started on: Friday, 29 October 2021 08:35AM

    Process ID: 78511
    Host:       bp1-compute00216.data.bp.acrc.priv
    PSIDATADIR: /work/zw18965/.conda/envs/p4env/share/psi4
    Memory:     500.0 MiB
    Threads:    24
    
  ==> Input File <==

--------------------------------------------------------------------------
memory 144 GB

molecule {
0 1
Ag       0.000000    0.000000    0.033547 
H        0.000000    0.000000   -1.576706 
 }

set dynamic_level 1
set basis Def2-TZVPPD

optimize("MN15-D3BJ")
frequencies("MN15-D3BJ")
--------------------------------------------------------------------------

  Memory set to 134.110 GiB by Python driver.
gradient() will perform analytic gradient computation.

*** tstart() called on bp1-compute00216.data.bp.acrc.priv
*** at Fri Oct 29 08:35:57 2021

   => Loading Basis Set <=

    Name: DEF2-TZVPPD
    Role: ORBITAL
    Keyword: BASIS
    atoms 1 entry AG         line  2174 (ECP: line  3646) file /work/zw18965/.conda/envs/p4env/share/psi4/basis/def2-tzvppd.gbs 
    atoms 2 entry H          line    14 file /work/zw18965/.conda/envs/p4env/share/psi4/basis/def2-tzvppd.gbs 

    !!!  WARNING: ECP capability is in beta. Please check occupations closely.  !!!


         ---------------------------------------------------------
                                   SCF
               by Justin Turney, Rob Parrish, Andy Simmonett
                          and Daniel G. A. Smith
                              RKS Reference
                       24 Threads, 137329 MiB Core
         ---------------------------------------------------------

  ==> Geometry <==

    Molecular point group: c2v
    Full point group: C_inf_v

    Geometry (in Angstrom), charge = 0, multiplicity = 1:

       Center              X                  Y                   Z               Mass       
    ------------   -----------------  -----------------  -----------------  -----------------
         AG           0.000000000000     0.000000000000     0.015038545267   106.905091600000
         H            0.000000000000     0.000000000000    -1.595214454733     1.007825032230

  Running in c2v symmetry.

  Rotational constants: A = ************  B =      6.51176  C =      6.51176 [cm^-1]
  Rotational constants: A = ************  B = 195217.55314  C = 195217.55314 [MHz]
  Nuclear repulsion =    6.243967254046415

  Charge       = 0
  Multiplicity = 1
  Electrons    = 20
  Nalpha       = 10
  Nbeta        = 10

  ==> Algorithm <==

  SCF Algorithm Type is DF.
  DIIS enabled.
  MOM disabled.
  Fractional occupation disabled.
  Guess Type is SAD.
  Energy threshold   = 1.00e-08
  Density threshold  = 1.00e-08
  Integral threshold = 0.00e+00

  ==> Primary Basis <==

  Basis Set: DEF2-TZVPPD
    Blend: DEF2-TZVPPD
    Number of shells: 23
    Number of basis function: 73
    Number of Cartesian functions: 89
    Spherical Harmonics?: true
    Max angular momentum: 4

  Core potential: DEF2-TZVPPD
    Number of shells: 4
    Number of ECP primitives: 14
    Number of ECP core electrons: 28
    Max angular momentum: 3

  ==> DFT Potential <==

   => Composite Functional: MN15-D3BJ <= 

   MN15 Hybrid Meta-GGA Exchange-Correlation Functional

    H. S. Yu, X. He, S. L. Li, and D. G. Truhlar, Chem. Sci. 7, 5032-5051, 2016


    Deriv               =              1
    GGA                 =           TRUE
    Meta                =           TRUE

    Exchange Hybrid     =           TRUE
    MP2 Hybrid          =          FALSE

   => Exchange Functionals <=

    1.0000   XC_HYB_MGGA_X_MN15

   => Exact (HF) Exchange <=

    0.4400               HF 

   => Correlation Functionals <=

    1.0000   XC_MGGA_C_MN15

   => Molecular Quadrature <=

    Radial Scheme          =       TREUTLER
    Pruning Scheme         =           FLAT
    Nuclear Scheme         =       TREUTLER

    BS radius alpha        =              1
    Pruning alpha          =              1
    Radial Points          =             75
    Spherical Points       =            302
    Total Points           =          45039
    Total Blocks           =            422
    Max Points             =            256
    Max Functions          =             73

   => MN15-D3(BJ): Empirical Dispersion <=

    Grimme's -D3 (BJ-damping) Dispersion Correction
    Grimme S.; Ehrlich S.; Goerigk L. (2011), J. Comput. Chem., 32: 1456
    Parametrisation from:    L. Goerigk, A. Hansen, C. Bauer, S. Ehrlich, A. Najibi, S. Grimme, Phys. Chem. Chem. Phys. 19, 32184-32215, 2017

        s6 =       1.000000
        s8 =       2.097100
        a1 =       0.786200
        a2 =       7.592300

   => Loading Basis Set <=

    Name: (DEF2-TZVPPD AUX)
    Role: JKFIT
    Keyword: DF_BASIS_SCF
    atoms 1 entry AG         line  4369 file /work/zw18965/.conda/envs/p4env/share/psi4/basis/def2-tzvpp-jkfit.gbs 
    atoms 2 entry H          line    23 file /work/zw18965/.conda/envs/p4env/share/psi4/basis/def2-tzvpp-jkfit.gbs 

  ==> Pre-Iterations <==

   -------------------------------------------------------
    Irrep   Nso     Nmo     Nalpha   Nbeta   Ndocc  Nsocc
   -------------------------------------------------------
     A1        31      31       0       0       0       0
     A2         8       8       0       0       0       0
     B1        17      17       0       0       0       0
     B2        17      17       0       0       0       0
   -------------------------------------------------------
    Total      73      73      10      10      10       0
   -------------------------------------------------------

  ==> Integral Setup <==

  DFHelper Memory: AOs need 0.014 GiB; user supplied 100.367 GiB. Using in-core AOs.

  ==> MemDFJK: Density-Fitted J/K Matrices <==

    J tasked:                   Yes
    K tasked:                   Yes
    wK tasked:                   No
    OpenMP threads:              24
    Memory [MiB]:            102775
    Algorithm:                 Core
    Schwarz Cutoff:           1E-12
    Mask sparsity (%):       0.0000
    Fitting Condition:        1E-10

   => Auxiliary Basis Set <=

  Basis Set: (DEF2-TZVPPD AUX)
    Blend: DEF2-TZVPP-JKFIT
    Number of shells: 55
    Number of basis function: 273
    Number of Cartesian functions: 404
    Spherical Harmonics?: true
    Max angular momentum: 6

  Cached 100.0% of DFT collocation blocks in 0.216 [GiB].

  Minimum eigenvalue in the overlap matrix is 3.3162039647E-03.
  Using Symmetric Orthogonalization.

  SCF Guess: Superposition of Atomic Densities via on-the-fly atomic UHF.

  ==> Iterations <==

                           Total Energy        Delta E     RMS |[F,P]|

   @DF-RKS iter SAD:  -146.94137074288892   -1.46941e+02   0.00000e+00 
   @DF-RKS iter   1:  -147.20605716489825   -2.64686e-01   8.42776e-03 DIIS
   @DF-RKS iter   2:  -147.19188040381772    1.41768e-02   1.09960e-02 DIIS
   @DF-RKS iter   3:  -147.26486048697677   -7.29801e-02   9.68803e-04 DIIS
   @DF-RKS iter   4:  -147.26540660116908   -5.46114e-04   3.67673e-04 DIIS
   @DF-RKS iter   5:  -147.26553448931170   -1.27888e-04   2.18466e-04 DIIS
   @DF-RKS iter   6:  -147.26557219572823   -3.77064e-05   3.39918e-05 DIIS
   @DF-RKS iter   7:  -147.26557621617627   -4.02045e-06   9.06648e-06 DIIS
   @DF-RKS iter   8:  -147.26557640748439   -1.91308e-07   1.35144e-06 DIIS
   @DF-RKS iter   9:  -147.26557641089028   -3.40589e-09   2.82165e-07 DIIS
   @DF-RKS iter  10:  -147.26557641104552   -1.55239e-10   4.69729e-08 DIIS
   @DF-RKS iter  11:  -147.26557641104719   -1.67688e-12   3.67537e-09 DIIS
  Energy and wave function converged.


  ==> Post-Iterations <==

    Orbital Energies [Eh]
    ---------------------

    Doubly Occupied:                                                      

       1A1    -3.661759     2A1    -2.314275     1B1    -2.308825  
       1B2    -2.308825     3A1    -0.429835     2B2    -0.388280  
       2B1    -0.388280     1A2    -0.381830     4A1    -0.381826  
       5A1    -0.282073  

    Virtual:                                                              

       6A1    -0.052445     3B2     0.022151     3B1     0.022151  
       7A1     0.118844     8A1     0.139584     9A1     0.210986  
       4B2     0.211612     4B1     0.211612     5B2     0.257494  
       5B1     0.257494    10A1     0.433829     2A2     0.445125  
      11A1     0.445126    12A1     0.476642     6B2     0.561633  
       6B1     0.561633    13A1     0.626627     7B2     0.906856  
       7B1     0.906856    14A1     1.111388     3A2     1.572520  
      15A1     1.572531     8B1     1.585487     8B2     1.585487  
       9B2     1.623423     9B1     1.623423    10B2     1.657412  
      10B1     1.657412    16A1     1.682343    17A1     1.852921  
      18A1     2.007387     4A2     2.037148    19A1     2.037171  
      11B2     2.096643    11B1     2.096643    20A1     2.207224  
      21A1     2.592857     5A2     3.157591    22A1     3.157647  
      12B2     3.362280    12B1     3.362280    13B2     3.773443  
      13B1     3.773443    23A1     3.820233    24A1     4.408915  
      14B2     4.607439    14B1     4.607439     6A2     4.620290  
      25A1     4.620349    15B2     4.793595    15B1     4.793595  
      26A1     5.014024    16B2     5.415627    16B1     5.415627  
       7A2     5.416598    27A1     5.416648     8A2     5.419141  
      28A1     5.419168    17B2     5.537000    17B1     5.537000  
      29A1     5.940473    30A1    32.989947    31A1   110.604205  

    Final Occupation by Irrep:
             A1    A2    B1    B2 
    DOCC [     5,    1,    2,    2 ]

  @DF-RKS Final Energy:  -147.26557641104719

   => Energetics <=

    Nuclear Repulsion Energy =              6.2439672540464146
    One-Electron Energy =                -273.3855439500671878
    Two-Electron Energy =                 128.0492234729565268
    DFT Exchange-Correlation Energy =      -8.1732098079829356
    Empirical Dispersion Energy =          -0.0000133800000000
    VV10 Nonlocal Energy =                  0.0000000000000000
    Total Energy =                       -147.2655764110471921

Computation Completed


Properties will be evaluated at   0.000000,   0.000000,   0.000000 [a0]

Properties computed using the SCF density matrix

  Nuclear Dipole Moment: [e a0]
     X:     0.0000      Y:     0.0000      Z:    -2.4746

  Electronic Dipole Moment: [e a0]
     X:     0.0000      Y:     0.0000      Z:     3.6197

  Dipole Moment: [e a0]
     X:     0.0000      Y:     0.0000      Z:     1.1452     Total:     1.1452

  Dipole Moment: [D]
     X:     0.0000      Y:     0.0000      Z:     2.9107     Total:     2.9107


*** tstop() called on bp1-compute00216.data.bp.acrc.priv at Fri Oct 29 08:36:02 2021
Module time:
	user time   =      56.56 seconds =       0.94 minutes
	system time =       3.39 seconds =       0.06 minutes
	total time  =          5 seconds =       0.08 minutes
Total time:
	user time   =      56.56 seconds =       0.94 minutes
	system time =       3.39 seconds =       0.06 minutes
	total time  =          5 seconds =       0.08 minutes

*** tstart() called on bp1-compute00216.data.bp.acrc.priv
*** at Fri Oct 29 08:36:02 2021


         ------------------------------------------------------------
                                   SCF GRAD                          
                          Rob Parrish, Justin Turney,                
                       Andy Simmonett, and Alex Sokolov              
         ------------------------------------------------------------

  ==> Geometry <==

    Molecular point group: c2v
    Full point group: C_inf_v

    Geometry (in Angstrom), charge = 0, multiplicity = 1:

       Center              X                  Y                   Z               Mass       
    ------------   -----------------  -----------------  -----------------  -----------------
         AG           0.000000000000     0.000000000000     0.015038545267   106.905091600000
         H            0.000000000000     0.000000000000    -1.595214454733     1.007825032230

  Nuclear repulsion =    6.243967254046415

  ==> Basis Set <==

  Basis Set: DEF2-TZVPPD
    Blend: DEF2-TZVPPD
    Number of shells: 23
    Number of basis function: 73
    Number of Cartesian functions: 89
    Spherical Harmonics?: true
    Max angular momentum: 4

  Core potential: DEF2-TZVPPD
    Number of shells: 4
    Number of ECP primitives: 14
    Number of ECP core electrons: 28
    Max angular momentum: 3

  ==> DFJKGrad: Density-Fitted SCF Gradients <==

    Gradient:                    1
    J tasked:                  Yes
    K tasked:                  Yes
    wK tasked:                  No
    OpenMP threads:             24
    Integrals threads:          24
    Memory [MiB]:           102996
    Schwarz Cutoff:          0E+00
    Fitting Condition:       1E-10

   => Auxiliary Basis Set <=

  Basis Set: (DEF2-TZVPPD AUX)
    Blend: DEF2-TZVPP-JKFIT
    Number of shells: 55
    Number of basis function: 273
    Number of Cartesian functions: 404
    Spherical Harmonics?: true
    Max angular momentum: 6

  ==> DFT Potential <==

   => Composite Functional: MN15-D3BJ <= 

   MN15 Hybrid Meta-GGA Exchange-Correlation Functional

    H. S. Yu, X. He, S. L. Li, and D. G. Truhlar, Chem. Sci. 7, 5032-5051, 2016


    Deriv               =              1
    GGA                 =           TRUE
    Meta                =           TRUE

    Exchange Hybrid     =           TRUE
    MP2 Hybrid          =          FALSE

   => Exchange Functionals <=

    1.0000   XC_HYB_MGGA_X_MN15

   => Exact (HF) Exchange <=

    0.4400               HF 

   => Correlation Functionals <=

    1.0000   XC_MGGA_C_MN15

   => Molecular Quadrature <=

    Radial Scheme          =       TREUTLER
    Pruning Scheme         =           FLAT
    Nuclear Scheme         =       TREUTLER

    BS radius alpha        =              1
    Pruning alpha          =              1
    Radial Points          =             75
    Spherical Points       =            302
    Total Points           =          45039
    Total Blocks           =            422
    Max Points             =            256
    Max Functions          =             73


  -Total Gradient:
     Atom            X                  Y                   Z
    ------   -----------------  -----------------  -----------------
       1       -0.000000000000     0.000000000000    -0.126453948480
       2       -0.000000000000    -0.000000000000     0.126433618811


*** tstop() called on bp1-compute00216.data.bp.acrc.priv at Fri Oct 29 08:36:08 2021
Module time:
	user time   =      34.91 seconds =       0.58 minutes
	system time =      10.30 seconds =       0.17 minutes
	total time  =          6 seconds =       0.10 minutes
Total time:
	user time   =      92.52 seconds =       1.54 minutes
	system time =      13.76 seconds =       0.23 minutes
	total time  =         11 seconds =       0.18 minutes


  ==> Adding ECP gradient terms (computed numerically) <==

  -ECP Gradient:
     Atom            X                  Y                   Z
    ------   -----------------  -----------------  -----------------
       1        0.000000000000     0.000000000000     0.127021948826
       2        0.000000000000     0.000000000000    -0.127021948814


  -Total Gradient:
     Atom            X                  Y                   Z
    ------   -----------------  -----------------  -----------------
       1        0.000000000000     0.000000000000     0.000568000346
       2        0.000000000000     0.000000000000    -0.000588330003


			-----------------------------------------
			 OPTKING 2.0: for geometry optimizations 
			  - R.A. King,  Bethel University        
			-----------------------------------------
	At level 1: Red. Int., RFO, no backsteps, dynamic trust

	Internal coordinates to be generated automatically.
	Detected frag 1 with atoms:  1 2
	---Fragment 1 Bond Connectivity---
	 1 : 2
	 2 : 1

	---Fragment 1 Geometry and Gradient---
	 AG          0.0000000000        0.0000000000        0.0284187319
	 H           0.0000000000        0.0000000000       -3.0145184308
	             0.0000000000        0.0000000000        0.0005680003
	             0.0000000000        0.0000000000       -0.0005883300

	Previous optimization step data not found.  Starting new optimization.

	---Fragment 1 Intrafragment Coordinates---
	 - Coordinate -           - BOHR/RAD -       - ANG/DEG -
	 R(1,2)           =         3.042937	       1.610253

	Current energy   :      -147.2655764110

	Generating empirical Hessian (Schlegel '84) for each fragment.
	Taking RFO optimization step.
	Going to follow RFO solution 1.
	Using RFO vector 1.
	Norm of target step-size    0.00031
	Projected energy change by RFO approximation:        -0.0000001309

	Back-transformation to cartesian coordinates...
	Successfully converged to displaced geometry.

	--- Internal Coordinate Step in ANG or DEG, aJ/ANG or AJ/DEG ---
	 ---------------------------------------------------------------------------
	   Coordinate                Previous        Force       Change         New 
	   ----------                --------       ------       ------       ------
	    1 R(1,2)          =      1.610253    -0.004763    -0.000164     1.610089
	 ---------------------------------------------------------------------------
	Successfully symmetrized geometry.

  ==> Convergence Check <==

  Measures of convergence in internal coordinates in au.
  Criteria marked as inactive (o), active & met (*), and active & unmet ( ).
  --------------------------------------------------------------------------------------------- ~
   Step     Total Energy     Delta E     MAX Force     RMS Force      MAX Disp      RMS Disp    ~
  --------------------------------------------------------------------------------------------- ~
    Convergence Criteria    1.00e-06 *    3.00e-04 *             o    1.20e-03 *             o  ~
  --------------------------------------------------------------------------------------------- ~
      1    -147.26557641   -1.47e+02      5.78e-04      5.78e-04 o    3.09e-04 *    3.09e-04 o  ~
  ---------------------------------------------------------------------------------------------

	Writing optimization data to binary file.
	Structure for next step:
	Cartesian Geometry (in Angstrom)
	   AG     0.0000000000   0.0000000000   0.0149567922
	    H     0.0000000000   0.0000000000  -1.5951326954
			--------------------------
			 OPTKING Finished Execution 
			--------------------------

    Structure for next step:
    Molecular point group: c2v
    Full point group: C_inf_v

    Geometry (in Angstrom), charge = 0, multiplicity = 1:

    AG           0.000000000000     0.000000000000     0.015037018244
    H            0.000000000000     0.000000000000    -1.595052475715

gradient() will perform analytic gradient computation.

*** tstart() called on bp1-compute00216.data.bp.acrc.priv
*** at Fri Oct 29 08:36:39 2021

   => Loading Basis Set <=

    Name: DEF2-TZVPPD
    Role: ORBITAL
    Keyword: BASIS
    atoms 1 entry AG         line  2174 (ECP: line  3646) file /work/zw18965/.conda/envs/p4env/share/psi4/basis/def2-tzvppd.gbs 
    atoms 2 entry H          line    14 file /work/zw18965/.conda/envs/p4env/share/psi4/basis/def2-tzvppd.gbs 

    !!!  WARNING: ECP capability is in beta. Please check occupations closely.  !!!


         ---------------------------------------------------------
                                   SCF
               by Justin Turney, Rob Parrish, Andy Simmonett
                          and Daniel G. A. Smith
                              RKS Reference
                       24 Threads, 137329 MiB Core
         ---------------------------------------------------------

  ==> Geometry <==

    Molecular point group: c2v
    Full point group: C_inf_v

    Geometry (in Angstrom), charge = 0, multiplicity = 1:

       Center              X                  Y                   Z               Mass       
    ------------   -----------------  -----------------  -----------------  -----------------
         AG           0.000000000000     0.000000000000     0.015037018244   106.905091600000
         H            0.000000000000     0.000000000000    -1.595052475715     1.007825032230

  Running in c2v symmetry.

  Rotational constants: A = ************  B =      6.51308  C =      6.51308 [cm^-1]
  Rotational constants: A = ************  B = 195257.20419  C = 195257.20419 [MHz]
  Nuclear repulsion =    6.244601334554273

  Charge       = 0
  Multiplicity = 1
  Electrons    = 20
  Nalpha       = 10
  Nbeta        = 10

  ==> Algorithm <==

  SCF Algorithm Type is DF.
  DIIS enabled.
  MOM disabled.
  Fractional occupation disabled.
  Guess Type is READ.
  Energy threshold   = 1.00e-08
  Density threshold  = 1.00e-08
  Integral threshold = 0.00e+00

  ==> Primary Basis <==

  Basis Set: DEF2-TZVPPD
    Blend: DEF2-TZVPPD
    Number of shells: 23
    Number of basis function: 73
    Number of Cartesian functions: 89
    Spherical Harmonics?: true
    Max angular momentum: 4

  Core potential: DEF2-TZVPPD
    Number of shells: 4
    Number of ECP primitives: 14
    Number of ECP core electrons: 28
    Max angular momentum: 3

  ==> DFT Potential <==

   => Composite Functional: MN15-D3BJ <= 

   MN15 Hybrid Meta-GGA Exchange-Correlation Functional

    H. S. Yu, X. He, S. L. Li, and D. G. Truhlar, Chem. Sci. 7, 5032-5051, 2016


    Deriv               =              1
    GGA                 =           TRUE
    Meta                =           TRUE

    Exchange Hybrid     =           TRUE
    MP2 Hybrid          =          FALSE

   => Exchange Functionals <=

    1.0000   XC_HYB_MGGA_X_MN15

   => Exact (HF) Exchange <=

    0.4400               HF 

   => Correlation Functionals <=

    1.0000   XC_MGGA_C_MN15

   => Molecular Quadrature <=

    Radial Scheme          =       TREUTLER
    Pruning Scheme         =           FLAT
    Nuclear Scheme         =       TREUTLER

    BS radius alpha        =              1
    Pruning alpha          =              1
    Radial Points          =             75
    Spherical Points       =            302
    Total Points           =          45039
    Total Blocks           =            422
    Max Points             =            256
    Max Functions          =             73

   => MN15-D3(BJ): Empirical Dispersion <=

    Grimme's -D3 (BJ-damping) Dispersion Correction
    Grimme S.; Ehrlich S.; Goerigk L. (2011), J. Comput. Chem., 32: 1456
    Parametrisation from:    L. Goerigk, A. Hansen, C. Bauer, S. Ehrlich, A. Najibi, S. Grimme, Phys. Chem. Chem. Phys. 19, 32184-32215, 2017

        s6 =       1.000000
        s8 =       2.097100
        a1 =       0.786200
        a2 =       7.592300

   => Loading Basis Set <=

    Name: (DEF2-TZVPPD AUX)
    Role: JKFIT
    Keyword: DF_BASIS_SCF
    atoms 1 entry AG         line  4369 file /work/zw18965/.conda/envs/p4env/share/psi4/basis/def2-tzvpp-jkfit.gbs 
    atoms 2 entry H          line    23 file /work/zw18965/.conda/envs/p4env/share/psi4/basis/def2-tzvpp-jkfit.gbs 

   => Loading Basis Set <=

    Name: DEF2-TZVPPD
    Role: ORBITAL
    Keyword: BASIS
    atoms 1 entry AG         line  2174 (ECP: line  3646) file /work/zw18965/.conda/envs/p4env/share/psi4/basis/def2-tzvppd.gbs 
    atoms 2 entry H          line    14 file /work/zw18965/.conda/envs/p4env/share/psi4/basis/def2-tzvppd.gbs 

    !!!  WARNING: ECP capability is in beta. Please check occupations closely.  !!!

  Reading orbitals from file 180, no projection.

  ==> Pre-Iterations <==

   -------------------------------------------------------
    Irrep   Nso     Nmo     Nalpha   Nbeta   Ndocc  Nsocc
   -------------------------------------------------------
     A1        31      31       0       0       0       0
     A2         8       8       0       0       0       0
     B1        17      17       0       0       0       0
     B2        17      17       0       0       0       0
   -------------------------------------------------------
    Total      73      73      10      10      10       0
   -------------------------------------------------------

  ==> Integral Setup <==

  DFHelper Memory: AOs need 0.014 GiB; user supplied 100.367 GiB. Using in-core AOs.

  ==> MemDFJK: Density-Fitted J/K Matrices <==

    J tasked:                   Yes
    K tasked:                   Yes
    wK tasked:                   No
    OpenMP threads:              24
    Memory [MiB]:            102775
    Algorithm:                 Core
    Schwarz Cutoff:           1E-12
    Mask sparsity (%):       0.0000
    Fitting Condition:        1E-10

   => Auxiliary Basis Set <=

  Basis Set: (DEF2-TZVPPD AUX)
    Blend: DEF2-TZVPP-JKFIT
    Number of shells: 55
    Number of basis function: 273
    Number of Cartesian functions: 404
    Spherical Harmonics?: true
    Max angular momentum: 6

  Cached 100.0% of DFT collocation blocks in 0.216 [GiB].

  Minimum eigenvalue in the overlap matrix is 3.3141017191E-03.
  Using Symmetric Orthogonalization.

  SCF Guess: Orbitals guess was supplied from a previous computation.

  ==> Iterations <==

                           Total Energy        Delta E     RMS |[F,P]|

   @DF-RKS iter   0:  -147.26559714269123   -1.47266e+02   6.25837e-06 
   @DF-RKS iter   1:  -147.26557657520755    2.05675e-05   8.03221e-07 DIIS
   @DF-RKS iter   2:  -147.26557657529600   -8.84484e-11   8.81118e-07 DIIS
   @DF-RKS iter   3:  -147.26557657567844   -3.82443e-10   9.12764e-08 DIIS
   @DF-RKS iter   4:  -147.26557657568495   -6.50857e-12   5.69371e-08 DIIS
   @DF-RKS iter   5:  -147.26557657568770   -2.75691e-12   2.56828e-08 DIIS
   @DF-RKS iter   6:  -147.26557657568858   -8.81073e-13   6.63837e-09 DIIS
  Energy and wave function converged.


  ==> Post-Iterations <==

    Orbital Energies [Eh]
    ---------------------

    Doubly Occupied:                                                      

       1A1    -3.661765     2A1    -2.314284     1B1    -2.308828  
       1B2    -2.308828     3A1    -0.429861     2B2    -0.388285  
       2B1    -0.388285     1A2    -0.381832     4A1    -0.381828  
       5A1    -0.282073  

    Virtual:                                                              

       6A1    -0.052437     3B1     0.022150     3B2     0.022150  
       7A1     0.118842     8A1     0.139594     9A1     0.210992  
       4B1     0.211612     4B2     0.211612     5B2     0.257500  
       5B1     0.257500    10A1     0.433856     2A2     0.445125  
      11A1     0.445125    12A1     0.476636     6B1     0.561645  
       6B2     0.561645    13A1     0.626642     7B2     0.906849  
       7B1     0.906849    14A1     1.111426     3A2     1.572512  
      15A1     1.572522     8B1     1.585486     8B2     1.585486  
       9B2     1.623437     9B1     1.623437    10B2     1.657435  
      10B1     1.657435    16A1     1.682341    17A1     1.852989  
      18A1     2.007330     4A2     2.037146    19A1     2.037169  
      11B1     2.096657    11B2     2.096657    20A1     2.207366  
      21A1     2.592864     5A2     3.157588    22A1     3.157644  
      12B1     3.362392    12B2     3.362392    13B1     3.773467  
      13B2     3.773467    23A1     3.820381    24A1     4.409191  
      14B1     4.607436    14B2     4.607436     6A2     4.620300  
      25A1     4.620359    15B2     4.793644    15B1     4.793644  
      26A1     5.014000    16B1     5.415623    16B2     5.415623  
       7A2     5.416601    27A1     5.416651     8A2     5.419139  
      28A1     5.419166    17B1     5.537136    17B2     5.537136  
      29A1     5.940795    30A1    32.990119    31A1   110.604251  

    Final Occupation by Irrep:
             A1    A2    B1    B2 
    DOCC [     5,    1,    2,    2 ]

  @DF-RKS Final Energy:  -147.26557657568858

   => Energetics <=

    Nuclear Repulsion Energy =              6.2446013345542726
    One-Electron Energy =                -273.3866735431048482
    Two-Electron Energy =                 128.0497298602973331
    DFT Exchange-Correlation Energy =      -8.1732208474353083
    Empirical Dispersion Energy =          -0.0000133800000000
    VV10 Nonlocal Energy =                  0.0000000000000000
    Total Energy =                       -147.2655765756885842

Computation Completed


Properties will be evaluated at   0.000000,   0.000000,   0.000000 [a0]

Properties computed using the SCF density matrix

  Nuclear Dipole Moment: [e a0]
     X:     0.0000      Y:     0.0000      Z:    -2.4743

  Electronic Dipole Moment: [e a0]
     X:     0.0000      Y:     0.0000      Z:     3.6194

  Dipole Moment: [e a0]
     X:     0.0000      Y:     0.0000      Z:     1.1451     Total:     1.1451

  Dipole Moment: [D]
     X:     0.0000      Y:     0.0000      Z:     2.9105     Total:     2.9105


*** tstop() called on bp1-compute00216.data.bp.acrc.priv at Fri Oct 29 08:36:42 2021
Module time:
	user time   =      36.23 seconds =       0.60 minutes
	system time =       1.68 seconds =       0.03 minutes
	total time  =          3 seconds =       0.05 minutes
Total time:
	user time   =     396.01 seconds =       6.60 minutes
	system time =      28.24 seconds =       0.47 minutes
	total time  =         45 seconds =       0.75 minutes

*** tstart() called on bp1-compute00216.data.bp.acrc.priv
*** at Fri Oct 29 08:36:42 2021


         ------------------------------------------------------------
                                   SCF GRAD                          
                          Rob Parrish, Justin Turney,                
                       Andy Simmonett, and Alex Sokolov              
         ------------------------------------------------------------

  ==> Geometry <==

    Molecular point group: c2v
    Full point group: C_inf_v

    Geometry (in Angstrom), charge = 0, multiplicity = 1:

       Center              X                  Y                   Z               Mass       
    ------------   -----------------  -----------------  -----------------  -----------------
         AG           0.000000000000     0.000000000000     0.015037018244   106.905091600000
         H            0.000000000000     0.000000000000    -1.595052475715     1.007825032230

  Nuclear repulsion =    6.244601334554273

  ==> Basis Set <==

  Basis Set: DEF2-TZVPPD
    Blend: DEF2-TZVPPD
    Number of shells: 23
    Number of basis function: 73
    Number of Cartesian functions: 89
    Spherical Harmonics?: true
    Max angular momentum: 4

  Core potential: DEF2-TZVPPD
    Number of shells: 4
    Number of ECP primitives: 14
    Number of ECP core electrons: 28
    Max angular momentum: 3

  ==> DFJKGrad: Density-Fitted SCF Gradients <==

    Gradient:                    1
    J tasked:                  Yes
    K tasked:                  Yes
    wK tasked:                  No
    OpenMP threads:             24
    Integrals threads:          24
    Memory [MiB]:           102996
    Schwarz Cutoff:          0E+00
    Fitting Condition:       1E-10

   => Auxiliary Basis Set <=

  Basis Set: (DEF2-TZVPPD AUX)
    Blend: DEF2-TZVPP-JKFIT
    Number of shells: 55
    Number of basis function: 273
    Number of Cartesian functions: 404
    Spherical Harmonics?: true
    Max angular momentum: 6

  ==> DFT Potential <==

   => Composite Functional: MN15-D3BJ <= 

   MN15 Hybrid Meta-GGA Exchange-Correlation Functional

    H. S. Yu, X. He, S. L. Li, and D. G. Truhlar, Chem. Sci. 7, 5032-5051, 2016


    Deriv               =              1
    GGA                 =           TRUE
    Meta                =           TRUE

    Exchange Hybrid     =           TRUE
    MP2 Hybrid          =          FALSE

   => Exchange Functionals <=

    1.0000   XC_HYB_MGGA_X_MN15

   => Exact (HF) Exchange <=

    0.4400               HF 

   => Correlation Functionals <=

    1.0000   XC_MGGA_C_MN15

   => Molecular Quadrature <=

    Radial Scheme          =       TREUTLER
    Pruning Scheme         =           FLAT
    Nuclear Scheme         =       TREUTLER

    BS radius alpha        =              1
    Pruning alpha          =              1
    Radial Points          =             75
    Spherical Points       =            302
    Total Points           =          45039
    Total Blocks           =            422
    Max Points             =            256
    Max Functions          =             73


  -Total Gradient:
     Atom            X                  Y                   Z
    ------   -----------------  -----------------  -----------------
       1        0.000000000000     0.000000000000    -0.126533511833
       2       -0.000000000000    -0.000000000000     0.126513105895


*** tstop() called on bp1-compute00216.data.bp.acrc.priv at Fri Oct 29 08:36:47 2021
Module time:
	user time   =      33.70 seconds =       0.56 minutes
	system time =       2.60 seconds =       0.04 minutes
	total time  =          5 seconds =       0.08 minutes
Total time:
	user time   =     431.33 seconds =       7.19 minutes
	system time =      30.95 seconds =       0.52 minutes
	total time  =         50 seconds =       0.83 minutes


  ==> Adding ECP gradient terms (computed numerically) <==

  -ECP Gradient:
     Atom            X                  Y                   Z
    ------   -----------------  -----------------  -----------------
       1       -0.000000000000     0.000000000000     0.127063273994
       2       -0.000000000000     0.000000000000    -0.127063273991


  -Total Gradient:
     Atom            X                  Y                   Z
    ------   -----------------  -----------------  -----------------
       1       -0.000000000000     0.000000000000     0.000529762162
       2       -0.000000000000     0.000000000000    -0.000550168097


			-----------------------------------------
			 OPTKING 2.0: for geometry optimizations 
			  - R.A. King,  Bethel University        
			-----------------------------------------
	At level 1: Red. Int., RFO, no backsteps, dynamic trust

	Previous internal coordinate definitions found.
	---Fragment 1 Geometry and Gradient---
	 AG          0.0000000000        0.0000000000        0.0284158462
	 H           0.0000000000        0.0000000000       -3.0142123348
	            -0.0000000000        0.0000000000        0.0005297622
	            -0.0000000000        0.0000000000       -0.0005501681

	---Fragment 1 Intrafragment Coordinates---
	 - Coordinate -           - BOHR/RAD -       - ANG/DEG -
	 R(1,2)           =         3.042628	       1.610089

	Current energy   :      -147.2655765757

	Energy change for the previous step:
		Projected    :        -0.0000001309
		Actual       :        -0.0000001646
	Energy ratio indicates good step: Trust radius increased to 1.000e+00.


	Performing BFGS update.
	Previous computed or guess Hessian on step 1.
	Steps to be used in Hessian update: 1
	Taking RFO optimization step.
	Going to follow RFO solution 1.
	Using RFO vector 1.
	Norm of target step-size    0.00062
	Projected energy change by RFO approximation:        -0.0000001426

	Back-transformation to cartesian coordinates...
	Successfully converged to displaced geometry.

	--- Internal Coordinate Step in ANG or DEG, aJ/ANG or AJ/DEG ---
	 ---------------------------------------------------------------------------
	   Coordinate                Previous        Force       Change         New 
	   ----------                --------       ------       ------       ------
	    1 R(1,2)          =      1.610089    -0.004449    -0.000328     1.609762
	 ---------------------------------------------------------------------------
	Successfully symmetrized geometry.

  ==> Convergence Check <==

  Measures of convergence in internal coordinates in au.
  Criteria marked as inactive (o), active & met (*), and active & unmet ( ).
  ---------------------------------------------------------------------------------------------
   Step     Total Energy     Delta E     MAX Force     RMS Force      MAX Disp      RMS Disp   
  ---------------------------------------------------------------------------------------------
    Convergence Criteria    1.00e-06 *    3.00e-04 *             o    1.20e-03 *             o
  ---------------------------------------------------------------------------------------------
      2    -147.26557658   -1.65e-07 *    5.40e-04      5.40e-04 o    6.20e-04 *    6.20e-04 o  ~
  ---------------------------------------------------------------------------------------------

	Writing optimization data to binary file.
	Structure for next step:
	Cartesian Geometry (in Angstrom)
	   AG     0.0000000000   0.0000000000   0.0148730268
	    H     0.0000000000   0.0000000000  -1.5948884781
			--------------------------
			 OPTKING Finished Execution 
			--------------------------

    Structure for next step:
    Molecular point group: c2v
    Full point group: C_inf_v

    Geometry (in Angstrom), charge = 0, multiplicity = 1:

    AG           0.000000000000     0.000000000000     0.015033955133
    H            0.000000000000     0.000000000000    -1.594727556122

gradient() will perform analytic gradient computation.

*** tstart() called on bp1-compute00216.data.bp.acrc.priv
*** at Fri Oct 29 08:37:17 2021

   => Loading Basis Set <=

    Name: DEF2-TZVPPD
    Role: ORBITAL
    Keyword: BASIS
    atoms 1 entry AG         line  2174 (ECP: line  3646) file /work/zw18965/.conda/envs/p4env/share/psi4/basis/def2-tzvppd.gbs 
    atoms 2 entry H          line    14 file /work/zw18965/.conda/envs/p4env/share/psi4/basis/def2-tzvppd.gbs 

    !!!  WARNING: ECP capability is in beta. Please check occupations closely.  !!!


         ---------------------------------------------------------
                                   SCF
               by Justin Turney, Rob Parrish, Andy Simmonett
                          and Daniel G. A. Smith
                              RKS Reference
                       24 Threads, 137329 MiB Core
         ---------------------------------------------------------

  ==> Geometry <==

    Molecular point group: c2v
    Full point group: C_inf_v

    Geometry (in Angstrom), charge = 0, multiplicity = 1:

       Center              X                  Y                   Z               Mass       
    ------------   -----------------  -----------------  -----------------  -----------------
         AG           0.000000000000     0.000000000000     0.015033955133   106.905091600000
         H            0.000000000000     0.000000000000    -1.594727556122     1.007825032230

  Running in c2v symmetry.

  Rotational constants: A = ************  B =      6.51573  C =      6.51573 [cm^-1]
  Rotational constants: A = ************  B = 195336.77810  C = 195336.77810 [MHz]
  Nuclear repulsion =    6.245873648010097

  Charge       = 0
  Multiplicity = 1
  Electrons    = 20
  Nalpha       = 10
  Nbeta        = 10

  ==> Algorithm <==

  SCF Algorithm Type is DF.
  DIIS enabled.
  MOM disabled.
  Fractional occupation disabled.
  Guess Type is READ.
  Energy threshold   = 1.00e-08
  Density threshold  = 1.00e-08
  Integral threshold = 0.00e+00

  ==> Primary Basis <==

  Basis Set: DEF2-TZVPPD
    Blend: DEF2-TZVPPD
    Number of shells: 23
    Number of basis function: 73
    Number of Cartesian functions: 89
    Spherical Harmonics?: true
    Max angular momentum: 4

  Core potential: DEF2-TZVPPD
    Number of shells: 4
    Number of ECP primitives: 14
    Number of ECP core electrons: 28
    Max angular momentum: 3

  ==> DFT Potential <==

   => Composite Functional: MN15-D3BJ <= 

   MN15 Hybrid Meta-GGA Exchange-Correlation Functional

    H. S. Yu, X. He, S. L. Li, and D. G. Truhlar, Chem. Sci. 7, 5032-5051, 2016


    Deriv               =              1
    GGA                 =           TRUE
    Meta                =           TRUE

    Exchange Hybrid     =           TRUE
    MP2 Hybrid          =          FALSE

   => Exchange Functionals <=

    1.0000   XC_HYB_MGGA_X_MN15

   => Exact (HF) Exchange <=

    0.4400               HF 

   => Correlation Functionals <=

    1.0000   XC_MGGA_C_MN15

   => Molecular Quadrature <=

    Radial Scheme          =       TREUTLER
    Pruning Scheme         =           FLAT
    Nuclear Scheme         =       TREUTLER

    BS radius alpha        =              1
    Pruning alpha          =              1
    Radial Points          =             75
    Spherical Points       =            302
    Total Points           =          45039
    Total Blocks           =            422
    Max Points             =            256
    Max Functions          =             73

   => MN15-D3(BJ): Empirical Dispersion <=

    Grimme's -D3 (BJ-damping) Dispersion Correction
    Grimme S.; Ehrlich S.; Goerigk L. (2011), J. Comput. Chem., 32: 1456
    Parametrisation from:    L. Goerigk, A. Hansen, C. Bauer, S. Ehrlich, A. Najibi, S. Grimme, Phys. Chem. Chem. Phys. 19, 32184-32215, 2017

        s6 =       1.000000
        s8 =       2.097100
        a1 =       0.786200
        a2 =       7.592300

   => Loading Basis Set <=

    Name: (DEF2-TZVPPD AUX)
    Role: JKFIT
    Keyword: DF_BASIS_SCF
    atoms 1 entry AG         line  4369 file /work/zw18965/.conda/envs/p4env/share/psi4/basis/def2-tzvpp-jkfit.gbs 
    atoms 2 entry H          line    23 file /work/zw18965/.conda/envs/p4env/share/psi4/basis/def2-tzvpp-jkfit.gbs 

   => Loading Basis Set <=

    Name: DEF2-TZVPPD
    Role: ORBITAL
    Keyword: BASIS
    atoms 1 entry AG         line  2174 (ECP: line  3646) file /work/zw18965/.conda/envs/p4env/share/psi4/basis/def2-tzvppd.gbs 
    atoms 2 entry H          line    14 file /work/zw18965/.conda/envs/p4env/share/psi4/basis/def2-tzvppd.gbs 

    !!!  WARNING: ECP capability is in beta. Please check occupations closely.  !!!

  Reading orbitals from file 180, no projection.

  ==> Pre-Iterations <==

   -------------------------------------------------------
    Irrep   Nso     Nmo     Nalpha   Nbeta   Ndocc  Nsocc
   -------------------------------------------------------
     A1        31      31       0       0       0       0
     A2         8       8       0       0       0       0
     B1        17      17       0       0       0       0
     B2        17      17       0       0       0       0
   -------------------------------------------------------
    Total      73      73      10      10      10       0
   -------------------------------------------------------

  ==> Integral Setup <==

  DFHelper Memory: AOs need 0.014 GiB; user supplied 100.367 GiB. Using in-core AOs.

  ==> MemDFJK: Density-Fitted J/K Matrices <==

    J tasked:                   Yes
    K tasked:                   Yes
    wK tasked:                   No
    OpenMP threads:              24
    Memory [MiB]:            102775
    Algorithm:                 Core
    Schwarz Cutoff:           1E-12
    Mask sparsity (%):       0.0000
    Fitting Condition:        1E-10

   => Auxiliary Basis Set <=

  Basis Set: (DEF2-TZVPPD AUX)
    Blend: DEF2-TZVPP-JKFIT
    Number of shells: 55
    Number of basis function: 273
    Number of Cartesian functions: 404
    Spherical Harmonics?: true
    Max angular momentum: 6

  Cached 100.0% of DFT collocation blocks in 0.216 [GiB].

  Minimum eigenvalue in the overlap matrix is 3.3098875090E-03.
  Using Symmetric Orthogonalization.

  SCF Guess: Orbitals guess was supplied from a previous computation.

  ==> Iterations <==

                           Total Energy        Delta E     RMS |[F,P]|

   @DF-RKS iter   0:  -147.26561814628670   -1.47266e+02   1.25608e-05 
   @DF-RKS iter   1:  -147.26557686850722    4.12778e-05   1.61003e-06 DIIS
   @DF-RKS iter   2:  -147.26557686886477   -3.57545e-10   1.76498e-06 DIIS
   @DF-RKS iter   3:  -147.26557687040045   -1.53568e-09   1.82886e-07 DIIS
   @DF-RKS iter   4:  -147.26557687042651   -2.60627e-11   1.14068e-07 DIIS
   @DF-RKS iter   5:  -147.26557687043814   -1.16245e-11   5.16218e-08 DIIS
   @DF-RKS iter   6:  -147.26557687044101   -2.87059e-12   1.33125e-08 DIIS
   @DF-RKS iter   7:  -147.26557687044124   -2.27374e-13   2.28731e-09 DIIS
  Energy and wave function converged.


  ==> Post-Iterations <==

    Orbital Energies [Eh]
    ---------------------

    Doubly Occupied:                                                      

       1A1    -3.661777     2A1    -2.314302     1B2    -2.308836  
       1B1    -2.308836     3A1    -0.429912     2B2    -0.388297  
       2B1    -0.388297     1A2    -0.381837     4A1    -0.381833  
       5A1    -0.282072  

    Virtual:                                                              

       6A1    -0.052421     3B2     0.022149     3B1     0.022149  
       7A1     0.118839     8A1     0.139613     9A1     0.211005  
       4B2     0.211613     4B1     0.211613     5B1     0.257512  
       5B2     0.257512    10A1     0.433911     2A2     0.445123  
      11A1     0.445124    12A1     0.476624     6B1     0.561667  
       6B2     0.561667    13A1     0.626671     7B2     0.906835  
       7B1     0.906835    14A1     1.111503     3A2     1.572495  
      15A1     1.572506     8B1     1.585484     8B2     1.585484  
       9B1     1.623467     9B2     1.623467    10B1     1.657480  
      10B2     1.657480    16A1     1.682336    17A1     1.853126  
      18A1     2.007214     4A2     2.037140    19A1     2.037163  
      11B2     2.096687    11B1     2.096687    20A1     2.207653  
      21A1     2.592879     5A2     3.157581    22A1     3.157637  
      12B2     3.362617    12B1     3.362617    13B2     3.773514  
      13B1     3.773514    23A1     3.820679    24A1     4.409746  
      14B2     4.607429    14B1     4.607429     6A2     4.620319  
      25A1     4.620379    15B2     4.793741    15B1     4.793741  
      26A1     5.013951    16B2     5.415615    16B1     5.415615  
       7A2     5.416608    27A1     5.416659     8A2     5.419135  
      28A1     5.419162    17B2     5.537410    17B1     5.537410  
      29A1     5.941442    30A1    32.990463    31A1   110.604344  

    Final Occupation by Irrep:
             A1    A2    B1    B2 
    DOCC [     5,    1,    2,    2 ]

  @DF-RKS Final Energy:  -147.26557687044124

   => Energetics <=

    Nuclear Repulsion Energy =              6.2458736480100967
    One-Electron Energy =                -273.3889435584530361
    Two-Electron Energy =                 128.0507495958140396
    DFT Exchange-Correlation Energy =      -8.1732431758123560
    Empirical Dispersion Energy =          -0.0000133800000000
    VV10 Nonlocal Energy =                  0.0000000000000000
    Total Energy =                       -147.2655768704412651

Computation Completed


Properties will be evaluated at   0.000000,   0.000000,   0.000000 [a0]

Properties computed using the SCF density matrix

  Nuclear Dipole Moment: [e a0]
     X:     0.0000      Y:     0.0000      Z:    -2.4738

  Electronic Dipole Moment: [e a0]
     X:     0.0000      Y:     0.0000      Z:     3.6187

  Dipole Moment: [e a0]
     X:     0.0000      Y:     0.0000      Z:     1.1449     Total:     1.1449

  Dipole Moment: [D]
     X:     0.0000      Y:     0.0000      Z:     2.9101     Total:     2.9101


*** tstop() called on bp1-compute00216.data.bp.acrc.priv at Fri Oct 29 08:37:19 2021
Module time:
	user time   =      36.17 seconds =       0.60 minutes
	system time =       1.91 seconds =       0.03 minutes
	total time  =          2 seconds =       0.03 minutes
Total time:
	user time   =     733.71 seconds =      12.23 minutes
	system time =      45.02 seconds =       0.75 minutes
	total time  =         82 seconds =       1.37 minutes

*** tstart() called on bp1-compute00216.data.bp.acrc.priv
*** at Fri Oct 29 08:37:20 2021


         ------------------------------------------------------------
                                   SCF GRAD                          
                          Rob Parrish, Justin Turney,                
                       Andy Simmonett, and Alex Sokolov              
         ------------------------------------------------------------

  ==> Geometry <==

    Molecular point group: c2v
    Full point group: C_inf_v

    Geometry (in Angstrom), charge = 0, multiplicity = 1:

       Center              X                  Y                   Z               Mass       
    ------------   -----------------  -----------------  -----------------  -----------------
         AG           0.000000000000     0.000000000000     0.015033955133   106.905091600000
         H            0.000000000000     0.000000000000    -1.594727556122     1.007825032230

  Nuclear repulsion =    6.245873648010097

  ==> Basis Set <==

  Basis Set: DEF2-TZVPPD
    Blend: DEF2-TZVPPD
    Number of shells: 23
    Number of basis function: 73
    Number of Cartesian functions: 89
    Spherical Harmonics?: true
    Max angular momentum: 4

  Core potential: DEF2-TZVPPD
    Number of shells: 4
    Number of ECP primitives: 14
    Number of ECP core electrons: 28
    Max angular momentum: 3

  ==> DFJKGrad: Density-Fitted SCF Gradients <==

    Gradient:                    1
    J tasked:                  Yes
    K tasked:                  Yes
    wK tasked:                  No
    OpenMP threads:             24
    Integrals threads:          24
    Memory [MiB]:           102996
    Schwarz Cutoff:          0E+00
    Fitting Condition:       1E-10

   => Auxiliary Basis Set <=

  Basis Set: (DEF2-TZVPPD AUX)
    Blend: DEF2-TZVPP-JKFIT
    Number of shells: 55
    Number of basis function: 273
    Number of Cartesian functions: 404
    Spherical Harmonics?: true
    Max angular momentum: 6

  ==> DFT Potential <==

   => Composite Functional: MN15-D3BJ <= 

   MN15 Hybrid Meta-GGA Exchange-Correlation Functional

    H. S. Yu, X. He, S. L. Li, and D. G. Truhlar, Chem. Sci. 7, 5032-5051, 2016


    Deriv               =              1
    GGA                 =           TRUE
    Meta                =           TRUE

    Exchange Hybrid     =           TRUE
    MP2 Hybrid          =          FALSE

   => Exchange Functionals <=

    1.0000   XC_HYB_MGGA_X_MN15

   => Exact (HF) Exchange <=

    0.4400               HF 

   => Correlation Functionals <=

    1.0000   XC_MGGA_C_MN15

   => Molecular Quadrature <=

    Radial Scheme          =       TREUTLER
    Pruning Scheme         =           FLAT
    Nuclear Scheme         =       TREUTLER

    BS radius alpha        =              1
    Pruning alpha          =              1
    Radial Points          =             75
    Spherical Points       =            302
    Total Points           =          45039
    Total Blocks           =            422
    Max Points             =            256
    Max Functions          =             73


  -Total Gradient:
     Atom            X                  Y                   Z
    ------   -----------------  -----------------  -----------------
       1        0.000000000000     0.000000000000    -0.126693237426
       2       -0.000000000000    -0.000000000000     0.126672679873


*** tstop() called on bp1-compute00216.data.bp.acrc.priv at Fri Oct 29 08:37:24 2021
Module time:
	user time   =      34.18 seconds =       0.57 minutes
	system time =       2.62 seconds =       0.04 minutes
	total time  =          4 seconds =       0.07 minutes
Total time:
	user time   =     769.79 seconds =      12.83 minutes
	system time =      47.74 seconds =       0.80 minutes
	total time  =         87 seconds =       1.45 minutes


  ==> Adding ECP gradient terms (computed numerically) <==

  -ECP Gradient:
     Atom            X                  Y                   Z
    ------   -----------------  -----------------  -----------------
       1       -0.000000000000     0.000000000000     0.127146211411
       2       -0.000000000000     0.000000000000    -0.127146211396


  -Total Gradient:
     Atom            X                  Y                   Z
    ------   -----------------  -----------------  -----------------
       1       -0.000000000000     0.000000000000     0.000452973986
       2       -0.000000000000     0.000000000000    -0.000473531523


			-----------------------------------------
			 OPTKING 2.0: for geometry optimizations 
			  - R.A. King,  Bethel University        
			-----------------------------------------
	At level 1: Red. Int., RFO, no backsteps, dynamic trust

	Previous internal coordinate definitions found.
	---Fragment 1 Geometry and Gradient---
	 AG          0.0000000000        0.0000000000        0.0284100578
	 H           0.0000000000        0.0000000000       -3.0135983258
	            -0.0000000000        0.0000000000        0.0004529740
	            -0.0000000000        0.0000000000       -0.0004735315

	---Fragment 1 Intrafragment Coordinates---
	 - Coordinate -           - BOHR/RAD -       - ANG/DEG -
	 R(1,2)           =         3.042008	       1.609762

	Current energy   :      -147.2655768704

	Energy change for the previous step:
		Projected    :        -0.0000001426
		Actual       :        -0.0000002948

	Performing BFGS update.
	Previous computed or guess Hessian on step 1.
	Denominators (dg)(dq) or (dq)(dq) are very small.
	 Skipping Hessian update for step 2.
	Steps to be used in Hessian update: 1
	Taking RFO optimization step.
	Going to follow RFO solution 1.
	Using RFO vector 1.
	Norm of target step-size    0.00374
	Projected energy change by RFO approximation:         0.0000052749

	Back-transformation to cartesian coordinates...
	Successfully converged to displaced geometry.

	--- Internal Coordinate Step in ANG or DEG, aJ/ANG or AJ/DEG ---
	 ---------------------------------------------------------------------------
	   Coordinate                Previous        Force       Change         New 
	   ----------                --------       ------       ------       ------
	    1 R(1,2)          =      1.609762    -0.003817    -0.001981     1.607780
	 ---------------------------------------------------------------------------
	Successfully symmetrized geometry.

  ==> Convergence Check <==

  Measures of convergence in internal coordinates in au.
  Criteria marked as inactive (o), active & met (*), and active & unmet ( ).
  ---------------------------------------------------------------------------------------------
   Step     Total Energy     Delta E     MAX Force     RMS Force      MAX Disp      RMS Disp   
  ---------------------------------------------------------------------------------------------
    Convergence Criteria    1.00e-06 *    3.00e-04 *             o    1.20e-03 *             o
  ---------------------------------------------------------------------------------------------
      3    -147.26557687   -2.95e-07 *    4.63e-04      4.63e-04 o    3.74e-03      3.74e-03 o  ~
  ---------------------------------------------------------------------------------------------

	Writing optimization data to binary file.
	Structure for next step:
	Cartesian Geometry (in Angstrom)
	   AG     0.0000000000   0.0000000000   0.0140432862
	    H     0.0000000000   0.0000000000  -1.5937368810
			--------------------------
			 OPTKING Finished Execution 
			--------------------------

    Structure for next step:
    Molecular point group: c2v
    Full point group: C_inf_v

    Geometry (in Angstrom), charge = 0, multiplicity = 1:

    AG           0.000000000000     0.000000000000     0.015015450937
    H            0.000000000000     0.000000000000    -1.592764722506

gradient() will perform analytic gradient computation.

*** tstart() called on bp1-compute00216.data.bp.acrc.priv
*** at Fri Oct 29 08:37:54 2021

   => Loading Basis Set <=

    Name: DEF2-TZVPPD
    Role: ORBITAL
    Keyword: BASIS
    atoms 1 entry AG         line  2174 (ECP: line  3646) file /work/zw18965/.conda/envs/p4env/share/psi4/basis/def2-tzvppd.gbs 
    atoms 2 entry H          line    14 file /work/zw18965/.conda/envs/p4env/share/psi4/basis/def2-tzvppd.gbs 

    !!!  WARNING: ECP capability is in beta. Please check occupations closely.  !!!


         ---------------------------------------------------------
                                   SCF
               by Justin Turney, Rob Parrish, Andy Simmonett
                          and Daniel G. A. Smith
                              RKS Reference
                       24 Threads, 137329 MiB Core
         ---------------------------------------------------------

  ==> Geometry <==

    Molecular point group: c2v
    Full point group: C_inf_v

    Geometry (in Angstrom), charge = 0, multiplicity = 1:

       Center              X                  Y                   Z               Mass       
    ------------   -----------------  -----------------  -----------------  -----------------
         AG           0.000000000000     0.000000000000     0.015015450937   106.905091600000
         H            0.000000000000     0.000000000000    -1.592764722506     1.007825032230

  Running in c2v symmetry.

  Rotational constants: A = ************  B =      6.53180  C =      6.53180 [cm^-1]
  Rotational constants: A = ************  B = 195818.51886  C = 195818.51886 [MHz]
  Nuclear repulsion =    6.253570711225275

  Charge       = 0
  Multiplicity = 1
  Electrons    = 20
  Nalpha       = 10
  Nbeta        = 10

  ==> Algorithm <==

  SCF Algorithm Type is DF.
  DIIS enabled.
  MOM disabled.
  Fractional occupation disabled.
  Guess Type is READ.
  Energy threshold   = 1.00e-08
  Density threshold  = 1.00e-08
  Integral threshold = 0.00e+00

  ==> Primary Basis <==

  Basis Set: DEF2-TZVPPD
    Blend: DEF2-TZVPPD
    Number of shells: 23
    Number of basis function: 73
    Number of Cartesian functions: 89
    Spherical Harmonics?: true
    Max angular momentum: 4

  Core potential: DEF2-TZVPPD
    Number of shells: 4
    Number of ECP primitives: 14
    Number of ECP core electrons: 28
    Max angular momentum: 3

  ==> DFT Potential <==

   => Composite Functional: MN15-D3BJ <= 

   MN15 Hybrid Meta-GGA Exchange-Correlation Functional

    H. S. Yu, X. He, S. L. Li, and D. G. Truhlar, Chem. Sci. 7, 5032-5051, 2016


    Deriv               =              1
    GGA                 =           TRUE
    Meta                =           TRUE

    Exchange Hybrid     =           TRUE
    MP2 Hybrid          =          FALSE

   => Exchange Functionals <=

    1.0000   XC_HYB_MGGA_X_MN15

   => Exact (HF) Exchange <=

    0.4400               HF 

   => Correlation Functionals <=

    1.0000   XC_MGGA_C_MN15

   => Molecular Quadrature <=

    Radial Scheme          =       TREUTLER
    Pruning Scheme         =           FLAT
    Nuclear Scheme         =       TREUTLER

    BS radius alpha        =              1
    Pruning alpha          =              1
    Radial Points          =             75
    Spherical Points       =            302
    Total Points           =          45039
    Total Blocks           =            422
    Max Points             =            256
    Max Functions          =             73

   => MN15-D3(BJ): Empirical Dispersion <=

    Grimme's -D3 (BJ-damping) Dispersion Correction
    Grimme S.; Ehrlich S.; Goerigk L. (2011), J. Comput. Chem., 32: 1456
    Parametrisation from:    L. Goerigk, A. Hansen, C. Bauer, S. Ehrlich, A. Najibi, S. Grimme, Phys. Chem. Chem. Phys. 19, 32184-32215, 2017

        s6 =       1.000000
        s8 =       2.097100
        a1 =       0.786200
        a2 =       7.592300

   => Loading Basis Set <=

    Name: (DEF2-TZVPPD AUX)
    Role: JKFIT
    Keyword: DF_BASIS_SCF
    atoms 1 entry AG         line  4369 file /work/zw18965/.conda/envs/p4env/share/psi4/basis/def2-tzvpp-jkfit.gbs 
    atoms 2 entry H          line    23 file /work/zw18965/.conda/envs/p4env/share/psi4/basis/def2-tzvpp-jkfit.gbs 

   => Loading Basis Set <=

    Name: DEF2-TZVPPD
    Role: ORBITAL
    Keyword: BASIS
    atoms 1 entry AG         line  2174 (ECP: line  3646) file /work/zw18965/.conda/envs/p4env/share/psi4/basis/def2-tzvppd.gbs 
    atoms 2 entry H          line    14 file /work/zw18965/.conda/envs/p4env/share/psi4/basis/def2-tzvppd.gbs 

    !!!  WARNING: ECP capability is in beta. Please check occupations closely.  !!!

  Reading orbitals from file 180, no projection.

  ==> Pre-Iterations <==

   -------------------------------------------------------
    Irrep   Nso     Nmo     Nalpha   Nbeta   Ndocc  Nsocc
   -------------------------------------------------------
     A1        31      31       0       0       0       0
     A2         8       8       0       0       0       0
     B1        17      17       0       0       0       0
     B2        17      17       0       0       0       0
   -------------------------------------------------------
    Total      73      73      10      10      10       0
   -------------------------------------------------------

  ==> Integral Setup <==

  DFHelper Memory: AOs need 0.014 GiB; user supplied 100.367 GiB. Using in-core AOs.

  ==> MemDFJK: Density-Fitted J/K Matrices <==

    J tasked:                   Yes
    K tasked:                   Yes
    wK tasked:                   No
    OpenMP threads:              24
    Memory [MiB]:            102775
    Algorithm:                 Core
    Schwarz Cutoff:           1E-12
    Mask sparsity (%):       0.0000
    Fitting Condition:        1E-10

   => Auxiliary Basis Set <=

  Basis Set: (DEF2-TZVPPD AUX)
    Blend: DEF2-TZVPP-JKFIT
    Number of shells: 55
    Number of basis function: 273
    Number of Cartesian functions: 404
    Spherical Harmonics?: true
    Max angular momentum: 6

  Cached 100.0% of DFT collocation blocks in 0.216 [GiB].

  Minimum eigenvalue in the overlap matrix is 3.2845078626E-03.
  Using Symmetric Orthogonalization.

  SCF Guess: Orbitals guess was supplied from a previous computation.

  ==> Iterations <==

                           Total Energy        Delta E     RMS |[F,P]|

   @DF-RKS iter   0:  -147.26582758934688   -1.47266e+02   7.60798e-05 
   @DF-RKS iter   1:  -147.26557755657797    2.50033e-04   9.73224e-06 DIIS
   @DF-RKS iter   2:  -147.26557756959090   -1.30129e-08   1.06683e-05 DIIS
   @DF-RKS iter   3:  -147.26557762568217   -5.60913e-08   1.10650e-06 DIIS
   @DF-RKS iter   4:  -147.26557762663495   -9.52781e-10   6.89891e-07 DIIS
   @DF-RKS iter   5:  -147.26557762705502   -4.20073e-10   3.12203e-07 DIIS
   @DF-RKS iter   6:  -147.26557762716180   -1.06780e-10   8.04103e-08 DIIS
   @DF-RKS iter   7:  -147.26557762716968   -7.87281e-12   1.38137e-08 DIIS
   @DF-RKS iter   8:  -147.26557762716990   -2.27374e-13   1.27115e-09 DIIS
  Energy and wave function converged.


  ==> Post-Iterations <==

    Orbital Energies [Eh]
    ---------------------

    Doubly Occupied:                                                      

       1A1    -3.661846     2A1    -2.314408     1B2    -2.308883  
       1B1    -2.308883     3A1    -0.430226     2B1    -0.388369  
       2B2    -0.388369     1A2    -0.381865     4A1    -0.381861  
       5A1    -0.282068  

    Virtual:                                                              

       6A1    -0.052324     3B2     0.022140     3B1     0.022140  
       7A1     0.118820     8A1     0.139734     9A1     0.211083  
       4B1     0.211619     4B2     0.211619     5B1     0.257583  
       5B2     0.257583    10A1     0.434240     2A2     0.445116  
      11A1     0.445116    12A1     0.476552     6B1     0.561804  
       6B2     0.561804    13A1     0.626849     7B1     0.906751  
       7B2     0.906751    14A1     1.111969     3A2     1.572395  
      15A1     1.572406     8B1     1.585471     8B2     1.585471  
       9B2     1.623642     9B1     1.623642    10B1     1.657759  
      10B2     1.657759    16A1     1.682309    17A1     1.853951  
      18A1     2.006513     4A2     2.037108    19A1     2.037131  
      11B1     2.096868    11B2     2.096868    20A1     2.209392  
      21A1     2.592967     5A2     3.157541    22A1     3.157597  
      12B2     3.363980    12B1     3.363980    13B1     3.773803  
      13B2     3.773803    23A1     3.822468    24A1     4.413107  
      14B2     4.607388    14B1     4.607388     6A2     4.620437  
      25A1     4.620497    15B2     4.794321    15B1     4.794321  
      26A1     5.013655    16B1     5.415570    16B2     5.415570  
       7A2     5.416653    27A1     5.416703     8A2     5.419110  
      28A1     5.419138    17B1     5.539074    17B2     5.539074  
      29A1     5.945354    30A1    32.992558    31A1   110.604910  

    Final Occupation by Irrep:
             A1    A2    B1    B2 
    DOCC [     5,    1,    2,    2 ]

  @DF-RKS Final Energy:  -147.26557762716990

   => Energetics <=

    Nuclear Repulsion Energy =              6.2535707112252750
    One-Electron Energy =                -273.4026591359665304
    Two-Electron Energy =                 128.0569019550767962
    DFT Exchange-Correlation Energy =      -8.1733777875054514
    Empirical Dispersion Energy =          -0.0000133700000000
    VV10 Nonlocal Energy =                  0.0000000000000000
    Total Energy =                       -147.2655776271699040

Computation Completed


Properties will be evaluated at   0.000000,   0.000000,   0.000000 [a0]

Properties computed using the SCF density matrix

  Nuclear Dipole Moment: [e a0]
     X:     0.0000      Y:     0.0000      Z:    -2.4708

  Electronic Dipole Moment: [e a0]
     X:     0.0000      Y:     0.0000      Z:     3.6147

  Dipole Moment: [e a0]
     X:     0.0000      Y:     0.0000      Z:     1.1439     Total:     1.1439

  Dipole Moment: [D]
     X:     0.0000      Y:     0.0000      Z:     2.9076     Total:     2.9076


*** tstop() called on bp1-compute00216.data.bp.acrc.priv at Fri Oct 29 08:37:56 2021
Module time:
	user time   =      36.60 seconds =       0.61 minutes
	system time =       1.60 seconds =       0.03 minutes
	total time  =          2 seconds =       0.03 minutes
Total time:
	user time   =    1071.85 seconds =      17.86 minutes
	system time =      61.02 seconds =       1.02 minutes
	total time  =        119 seconds =       1.98 minutes

*** tstart() called on bp1-compute00216.data.bp.acrc.priv
*** at Fri Oct 29 08:37:57 2021


         ------------------------------------------------------------
                                   SCF GRAD                          
                          Rob Parrish, Justin Turney,                
                       Andy Simmonett, and Alex Sokolov              
         ------------------------------------------------------------

  ==> Geometry <==

    Molecular point group: c2v
    Full point group: C_inf_v

    Geometry (in Angstrom), charge = 0, multiplicity = 1:

       Center              X                  Y                   Z               Mass       
    ------------   -----------------  -----------------  -----------------  -----------------
         AG           0.000000000000     0.000000000000     0.015015450937   106.905091600000
         H            0.000000000000     0.000000000000    -1.592764722506     1.007825032230

  Nuclear repulsion =    6.253570711225275

  ==> Basis Set <==

  Basis Set: DEF2-TZVPPD
    Blend: DEF2-TZVPPD
    Number of shells: 23
    Number of basis function: 73
    Number of Cartesian functions: 89
    Spherical Harmonics?: true
    Max angular momentum: 4

  Core potential: DEF2-TZVPPD
    Number of shells: 4
    Number of ECP primitives: 14
    Number of ECP core electrons: 28
    Max angular momentum: 3

  ==> DFJKGrad: Density-Fitted SCF Gradients <==

    Gradient:                    1
    J tasked:                  Yes
    K tasked:                  Yes
    wK tasked:                  No
    OpenMP threads:             24
    Integrals threads:          24
    Memory [MiB]:           102996
    Schwarz Cutoff:          0E+00
    Fitting Condition:       1E-10

   => Auxiliary Basis Set <=

  Basis Set: (DEF2-TZVPPD AUX)
    Blend: DEF2-TZVPP-JKFIT
    Number of shells: 55
    Number of basis function: 273
    Number of Cartesian functions: 404
    Spherical Harmonics?: true
    Max angular momentum: 6

  ==> DFT Potential <==

   => Composite Functional: MN15-D3BJ <= 

   MN15 Hybrid Meta-GGA Exchange-Correlation Functional

    H. S. Yu, X. He, S. L. Li, and D. G. Truhlar, Chem. Sci. 7, 5032-5051, 2016


    Deriv               =              1
    GGA                 =           TRUE
    Meta                =           TRUE

    Exchange Hybrid     =           TRUE
    MP2 Hybrid          =          FALSE

   => Exchange Functionals <=

    1.0000   XC_HYB_MGGA_X_MN15

   => Exact (HF) Exchange <=

    0.4400               HF 

   => Correlation Functionals <=

    1.0000   XC_MGGA_C_MN15

   => Molecular Quadrature <=

    Radial Scheme          =       TREUTLER
    Pruning Scheme         =           FLAT
    Nuclear Scheme         =       TREUTLER

    BS radius alpha        =              1
    Pruning alpha          =              1
    Radial Points          =             75
    Spherical Points       =            302
    Total Points           =          45039
    Total Blocks           =            422
    Max Points             =            256
    Max Functions          =             73


  -Total Gradient:
     Atom            X                  Y                   Z
    ------   -----------------  -----------------  -----------------
       1        0.000000000000     0.000000000000    -0.127661114240
       2        0.000000000000    -0.000000000000     0.127639679019


*** tstop() called on bp1-compute00216.data.bp.acrc.priv at Fri Oct 29 08:38:01 2021
Module time:
	user time   =      33.68 seconds =       0.56 minutes
	system time =       2.50 seconds =       0.04 minutes
	total time  =          4 seconds =       0.07 minutes
Total time:
	user time   =    1107.45 seconds =      18.46 minutes
	system time =      63.66 seconds =       1.06 minutes
	total time  =        124 seconds =       2.07 minutes


  ==> Adding ECP gradient terms (computed numerically) <==

  -ECP Gradient:
     Atom            X                  Y                   Z
    ------   -----------------  -----------------  -----------------
       1       -0.000000000000     0.000000000000     0.127647893660
       2       -0.000000000000     0.000000000000    -0.127647893654


  -Total Gradient:
     Atom            X                  Y                   Z
    ------   -----------------  -----------------  -----------------
       1       -0.000000000000     0.000000000000    -0.000013220581
       2       -0.000000000000     0.000000000000    -0.000008214635


			-----------------------------------------
			 OPTKING 2.0: for geometry optimizations 
			  - R.A. King,  Bethel University        
			-----------------------------------------
	At level 1: Red. Int., RFO, no backsteps, dynamic trust

	Previous internal coordinate definitions found.
	---Fragment 1 Geometry and Gradient---
	 AG          0.0000000000        0.0000000000        0.0283750899
	 H           0.0000000000        0.0000000000       -3.0098891078
	            -0.0000000000        0.0000000000       -0.0000132206
	            -0.0000000000        0.0000000000       -0.0000082146

	---Fragment 1 Intrafragment Coordinates---
	 - Coordinate -           - BOHR/RAD -       - ANG/DEG -
	 R(1,2)           =         3.038264	       1.607780

	Current energy   :      -147.2655776272

	Energy change for the previous step:
		Projected    :         0.0000052749
		Actual       :        -0.0000007567

	Performing BFGS update.
	Previous computed or guess Hessian on step 1.
	Steps to be used in Hessian update: 3 2
	Taking RFO optimization step.
	Going to follow RFO solution 1.
	Using RFO vector 1.
	Norm of target step-size    0.00002
	Projected energy change by RFO approximation:         0.0000000002

	Back-transformation to cartesian coordinates...
	Successfully converged to displaced geometry.

	--- Internal Coordinate Step in ANG or DEG, aJ/ANG or AJ/DEG ---
	 ---------------------------------------------------------------------------
	   Coordinate                Previous        Force       Change         New 
	   ----------                --------       ------       ------       ------
	    1 R(1,2)          =      1.607780     0.000021     0.000011     1.607791
	 ---------------------------------------------------------------------------
	Successfully symmetrized geometry.

  ==> Convergence Check <==

  Measures of convergence in internal coordinates in au.
  Criteria marked as inactive (o), active & met (*), and active & unmet ( ).
  ---------------------------------------------------------------------------------------------
   Step     Total Energy     Delta E     MAX Force     RMS Force      MAX Disp      RMS Disp   
  ---------------------------------------------------------------------------------------------
    Convergence Criteria    1.00e-06 *    3.00e-04 *             o    1.20e-03 *             o
  ---------------------------------------------------------------------------------------------
      4    -147.26557763   -7.57e-07 *    2.50e-06 *    2.50e-06 o    2.01e-05 *    2.01e-05 o  ~
  ---------------------------------------------------------------------------------------------


  **** Optimization is complete! (in 4 steps) ****

  ==> Optimization Summary <==

  Measures of convergence in internal coordinates in au.
  --------------------------------------------------------------------------------------------------------------- ~
   Step         Total Energy             Delta E       MAX Force       RMS Force        MAX Disp        RMS Disp  ~
  --------------------------------------------------------------------------------------------------------------- ~
      1    -147.265576411047   -147.265576411047      0.00057817      0.00057817      0.00030898      0.00030898  ~
      2    -147.265576575689     -0.000000164641      0.00053997      0.00053997      0.00061980      0.00061980  ~
      3    -147.265576870441     -0.000000294753      0.00046325      0.00046325      0.00374419      0.00374419  ~
      4    -147.265577627170     -0.000000756729      0.00000250      0.00000250      0.00002014      0.00002014  ~
  --------------------------------------------------------------------------------------------------------------- ~

	Writing optimization data to binary file.
	Final energy is   -147.2655776271699
	Final (previous) structure:
	Cartesian Geometry (in Angstrom)
	   AG     0.0000000000   0.0000000000   0.0150154509
	    H     0.0000000000   0.0000000000  -1.5927647162
	Saving final (previous) structure.
			--------------------------
			 OPTKING Finished Execution 
			--------------------------

    Final optimized geometry and variables:
    Molecular point group: c2v
    Full point group: C_inf_v

    Geometry (in Angstrom), charge = 0, multiplicity = 1:

    AG           0.000000000000     0.000000000000     0.015015450937
    H            0.000000000000     0.000000000000    -1.592764722506

	Removing binary optimization data file.
	Cleaning optimization helper files.
gradient() will perform analytic gradient computation.

*** tstart() called on bp1-compute00216.data.bp.acrc.priv
*** at Fri Oct 29 08:38:31 2021

   => Loading Basis Set <=

    Name: DEF2-TZVPPD
    Role: ORBITAL
    Keyword: BASIS
    atoms 1 entry AG         line  2174 (ECP: line  3646) file /work/zw18965/.conda/envs/p4env/share/psi4/basis/def2-tzvppd.gbs 
    atoms 2 entry H          line    14 file /work/zw18965/.conda/envs/p4env/share/psi4/basis/def2-tzvppd.gbs 

    !!!  WARNING: ECP capability is in beta. Please check occupations closely.  !!!


         ---------------------------------------------------------
                                   SCF
               by Justin Turney, Rob Parrish, Andy Simmonett
                          and Daniel G. A. Smith
                              RKS Reference
                       24 Threads, 137329 MiB Core
         ---------------------------------------------------------

  ==> Geometry <==

    Molecular point group: c2v
    Full point group: C_inf_v

    Geometry (in Angstrom), charge = 0, multiplicity = 1:

       Center              X                  Y                   Z               Mass       
    ------------   -----------------  -----------------  -----------------  -----------------
         AG           0.000000000000     0.000000000000     0.015015450937   106.905091600000
         H            0.000000000000     0.000000000000    -1.592764722506     1.007825032230

  Running in c2v symmetry.

  Rotational constants: A = ************  B =      6.53180  C =      6.53180 [cm^-1]
  Rotational constants: A = ************  B = 195818.51886  C = 195818.51886 [MHz]
  Nuclear repulsion =    6.253570711225275

  Charge       = 0
  Multiplicity = 1
  Electrons    = 20
  Nalpha       = 10
  Nbeta        = 10

  ==> Algorithm <==

  SCF Algorithm Type is DF.
  DIIS enabled.
  MOM disabled.
  Fractional occupation disabled.
  Guess Type is SAD.
  Energy threshold   = 1.00e-08
  Density threshold  = 1.00e-08
  Integral threshold = 0.00e+00

  ==> Primary Basis <==

  Basis Set: DEF2-TZVPPD
    Blend: DEF2-TZVPPD
    Number of shells: 23
    Number of basis function: 73
    Number of Cartesian functions: 89
    Spherical Harmonics?: true
    Max angular momentum: 4

  Core potential: DEF2-TZVPPD
    Number of shells: 4
    Number of ECP primitives: 14
    Number of ECP core electrons: 28
    Max angular momentum: 3

  ==> DFT Potential <==

   => Composite Functional: MN15-D3BJ <= 

   MN15 Hybrid Meta-GGA Exchange-Correlation Functional

    H. S. Yu, X. He, S. L. Li, and D. G. Truhlar, Chem. Sci. 7, 5032-5051, 2016


    Deriv               =              1
    GGA                 =           TRUE
    Meta                =           TRUE

    Exchange Hybrid     =           TRUE
    MP2 Hybrid          =          FALSE

   => Exchange Functionals <=

    1.0000   XC_HYB_MGGA_X_MN15

   => Exact (HF) Exchange <=

    0.4400               HF 

   => Correlation Functionals <=

    1.0000   XC_MGGA_C_MN15

   => Molecular Quadrature <=

    Radial Scheme          =       TREUTLER
    Pruning Scheme         =           FLAT
    Nuclear Scheme         =       TREUTLER

    BS radius alpha        =              1
    Pruning alpha          =              1
    Radial Points          =             75
    Spherical Points       =            302
    Total Points           =          45039
    Total Blocks           =            422
    Max Points             =            256
    Max Functions          =             73

   => MN15-D3(BJ): Empirical Dispersion <=

    Grimme's -D3 (BJ-damping) Dispersion Correction
    Grimme S.; Ehrlich S.; Goerigk L. (2011), J. Comput. Chem., 32: 1456
    Parametrisation from:    L. Goerigk, A. Hansen, C. Bauer, S. Ehrlich, A. Najibi, S. Grimme, Phys. Chem. Chem. Phys. 19, 32184-32215, 2017

        s6 =       1.000000
        s8 =       2.097100
        a1 =       0.786200
        a2 =       7.592300

   => Loading Basis Set <=

[...]

  ==> Algorithm <==

  SCF Algorithm Type is DF.
  DIIS enabled.
  MOM disabled.
  Fractional occupation disabled.
  Guess Type is SAD.
  Energy threshold   = 1.00e-08
  Density threshold  = 1.00e-08
  Integral threshold = 0.00e+00

  ==> Primary Basis <==

  Basis Set: DEF2-TZVPPD
    Blend: DEF2-TZVPPD
    Number of shells: 23
    Number of basis function: 73
    Number of Cartesian functions: 89
    Spherical Harmonics?: true
    Max angular momentum: 4

  Core potential: DEF2-TZVPPD
    Number of shells: 4
    Number of ECP primitives: 14
    Number of ECP core electrons: 28
    Max angular momentum: 3

  ==> DFT Potential <==

   => Composite Functional: MN15-D3BJ <= 

   MN15 Hybrid Meta-GGA Exchange-Correlation Functional

    H. S. Yu, X. He, S. L. Li, and D. G. Truhlar, Chem. Sci. 7, 5032-5051, 2016


    Deriv               =              1
    GGA                 =           TRUE
    Meta                =           TRUE

    Exchange Hybrid     =           TRUE
    MP2 Hybrid          =          FALSE

   => Exchange Functionals <=

    1.0000   XC_HYB_MGGA_X_MN15

   => Exact (HF) Exchange <=

    0.4400               HF 

   => Correlation Functionals <=

    1.0000   XC_MGGA_C_MN15

   => Molecular Quadrature <=

    Radial Scheme          =       TREUTLER
    Pruning Scheme         =           FLAT
    Nuclear Scheme         =       TREUTLER

    BS radius alpha        =              1
    Pruning alpha          =              1
    Radial Points          =             75
    Spherical Points       =            302
    Total Points           =          45039
    Total Blocks           =            422
    Max Points             =            256
    Max Functions          =             73

   => MN15-D3(BJ): Empirical Dispersion <=

    Grimme's -D3 (BJ-damping) Dispersion Correction
    Grimme S.; Ehrlich S.; Goerigk L. (2011), J. Comput. Chem., 32: 1456
    Parametrisation from:    L. Goerigk, A. Hansen, C. Bauer, S. Ehrlich, A. Najibi, S. Grimme, Phys. Chem. Chem. Phys. 19, 32184-32215, 2017

        s6 =       1.000000
        s8 =       2.097100
        a1 =       0.786200
        a2 =       7.592300

   => Loading Basis Set <=

    Name: (DEF2-TZVPPD AUX)
    Role: JKFIT
    Keyword: DF_BASIS_SCF
    atoms 1 entry AG         line  4369 file /work/zw18965/.conda/envs/p4env/share/psi4/basis/def2-tzvpp-jkfit.gbs 
    atoms 2 entry H          line    23 file /work/zw18965/.conda/envs/p4env/share/psi4/basis/def2-tzvpp-jkfit.gbs 

  ==> Pre-Iterations <==

   -------------------------------------------------------
    Irrep   Nso     Nmo     Nalpha   Nbeta   Ndocc  Nsocc
   -------------------------------------------------------
     A1        31      31       0       0       0       0
     A2         8       8       0       0       0       0
     B1        17      17       0       0       0       0
     B2        17      17       0       0       0       0
   -------------------------------------------------------
    Total      73      73      10      10      10       0
   -------------------------------------------------------

  ==> Integral Setup <==

  DFHelper Memory: AOs need 0.014 GiB; user supplied 100.367 GiB. Using in-core AOs.

  ==> MemDFJK: Density-Fitted J/K Matrices <==

    J tasked:                   Yes
    K tasked:                   Yes
    wK tasked:                   No
    OpenMP threads:              24
    Memory [MiB]:            102775
    Algorithm:                 Core
    Schwarz Cutoff:           1E-12
    Mask sparsity (%):       0.0000
    Fitting Condition:        1E-10

   => Auxiliary Basis Set <=

  Basis Set: (DEF2-TZVPPD AUX)
    Blend: DEF2-TZVPP-JKFIT
    Number of shells: 55
    Number of basis function: 273
    Number of Cartesian functions: 404
    Spherical Harmonics?: true
    Max angular momentum: 6

  Cached 100.0% of DFT collocation blocks in 0.216 [GiB].

  Minimum eigenvalue in the overlap matrix is 3.3184570890E-03.
  Using Symmetric Orthogonalization.

  SCF Guess: Superposition of Atomic Densities via on-the-fly atomic UHF.

  ==> Iterations <==

                           Total Energy        Delta E     RMS |[F,P]|

   @DF-RKS iter SAD:  -146.93937013717914   -1.46939e+02   0.00000e+00 
   @DF-RKS iter   1:  -147.20500456160613   -2.65634e-01   8.48240e-03 DIIS
   @DF-RKS iter   2:  -147.19054637829191    1.44582e-02   1.10734e-02 DIIS
   @DF-RKS iter   3:  -147.26484439011028   -7.42980e-02   9.80622e-04 DIIS
   @DF-RKS iter   4:  -147.26540520107676   -5.60811e-04   3.67170e-04 DIIS
   @DF-RKS iter   5:  -147.26553332981399   -1.28129e-04   2.21242e-04 DIIS
   @DF-RKS iter   6:  -147.26557191736259   -3.85875e-05   3.44546e-05 DIIS
   @DF-RKS iter   7:  -147.26557601037393   -4.09301e-06   9.46643e-06 DIIS
   @DF-RKS iter   8:  -147.26557621770655   -2.07333e-07   1.41850e-06 DIIS
   @DF-RKS iter   9:  -147.26557622139538   -3.68883e-09   2.89991e-07 DIIS
   @DF-RKS iter  10:  -147.26557622156281   -1.67432e-10   4.84519e-08 DIIS
   @DF-RKS iter  11:  -147.26557622156466   -1.84741e-12   4.05484e-09 DIIS
  Energy and wave function converged.


  ==> Post-Iterations <==

    Orbital Energies [Eh]
    ---------------------

    Doubly Occupied:                                                      

       1A1    -3.661753     2A1    -2.314266     1B1    -2.308820  
       1B2    -2.308820     3A1    -0.429807     2B2    -0.388273  
       2B1    -0.388273     1A2    -0.381828     4A1    -0.381823  
       5A1    -0.282073  

    Virtual:                                                              

       6A1    -0.052453     3B1     0.022152     3B2     0.022152  
       7A1     0.118846     8A1     0.139573     9A1     0.210979  
       4B2     0.211611     4B1     0.211611     5B1     0.257488  
       5B2     0.257488    10A1     0.433800     2A2     0.445126  
      11A1     0.445126    12A1     0.476649     6B2     0.561621  
       6B1     0.561621    13A1     0.626611     7B1     0.906863  
       7B2     0.906863    14A1     1.111347     3A2     1.572529  
      15A1     1.572539     8B2     1.585488     8B1     1.585488  
       9B1     1.623407     9B2     1.623407    10B2     1.657387  
      10B1     1.657387    16A1     1.682345    17A1     1.852848  
      18A1     2.007449     4A2     2.037151    19A1     2.037174  
      11B2     2.096627    11B1     2.096627    20A1     2.207071  
      21A1     2.592849     5A2     3.157595    22A1     3.157650  
      12B2     3.362160    12B1     3.362160    13B1     3.773417  
      13B2     3.773417    23A1     3.820074    24A1     4.408618  
      14B2     4.607443    14B1     4.607443     6A2     4.620280  
      25A1     4.620339    15B2     4.793544    15B1     4.793544  
      26A1     5.014049    16B1     5.415631    16B2     5.415631  
       7A2     5.416594    27A1     5.416644     8A2     5.419144  
      28A1     5.419170    17B1     5.536854    17B2     5.536854  
      29A1     5.940128    30A1    32.989764    31A1   110.604155  

    Final Occupation by Irrep:
             A1    A2    B1    B2 
    DOCC [     5,    1,    2,    2 ]

  @DF-RKS Final Energy:  -147.26557622156466

   => Energetics <=

    Nuclear Repulsion Energy =              6.2432881146942707
    One-Electron Energy =                -273.3843326638512394
    Two-Electron Energy =                 128.0486796242595062
    DFT Exchange-Correlation Energy =      -8.1731979166671742
    Empirical Dispersion Energy =          -0.0000133800000000
    VV10 Nonlocal Energy =                  0.0000000000000000
    Total Energy =                       -147.2655762215646291

Computation Completed


Properties will be evaluated at   0.000000,   0.000000,   0.000000 [a0]

Properties computed using the SCF density matrix

  Nuclear Dipole Moment: [e a0]
     X:     0.0000      Y:     0.0000      Z:    -2.4748

  Electronic Dipole Moment: [e a0]
     X:     0.0000      Y:     0.0000      Z:     3.6201

  Dipole Moment: [e a0]
     X:     0.0000      Y:     0.0000      Z:     1.1453     Total:     1.1453

  Dipole Moment: [D]
     X:     0.0000      Y:     0.0000      Z:     2.9110     Total:     2.9110


*** tstop() called on bp1-compute00216.data.bp.acrc.priv at Fri Oct 29 08:40:33 2021
Module time:
	user time   =      55.58 seconds =       0.93 minutes
	system time =       2.32 seconds =       0.04 minutes
	total time  =          5 seconds =       0.08 minutes
Total time:
	user time   =    2500.85 seconds =      41.68 minutes
	system time =     129.20 seconds =       2.15 minutes
	total time  =        276 seconds =       4.60 minutes

*** tstart() called on bp1-compute00216.data.bp.acrc.priv
*** at Fri Oct 29 08:40:33 2021


         ------------------------------------------------------------
                                   SCF GRAD                          
                          Rob Parrish, Justin Turney,                
                       Andy Simmonett, and Alex Sokolov              
         ------------------------------------------------------------

  ==> Geometry <==

    Molecular point group: c2v
    Full point group: C_inf_v

    Geometry (in Angstrom), charge = 0, multiplicity = 1:

       Center              X                  Y                   Z               Mass       
    ------------   -----------------  -----------------  -----------------  -----------------
         AG           0.000000000000     0.000000000000     0.015040181146   106.905091600000
         H            0.000000000000     0.000000000000    -1.595387980749     1.007825032230

  Nuclear repulsion =    6.243288114694271

  ==> Basis Set <==

  Basis Set: DEF2-TZVPPD
    Blend: DEF2-TZVPPD
    Number of shells: 23
    Number of basis function: 73
    Number of Cartesian functions: 89
    Spherical Harmonics?: true
    Max angular momentum: 4

  Core potential: DEF2-TZVPPD
    Number of shells: 4
    Number of ECP primitives: 14
    Number of ECP core electrons: 28
    Max angular momentum: 3

  ==> DFJKGrad: Density-Fitted SCF Gradients <==

    Gradient:                    1
    J tasked:                  Yes
    K tasked:                  Yes
    wK tasked:                  No
    OpenMP threads:             24
    Integrals threads:          24
    Memory [MiB]:           102996
    Schwarz Cutoff:          0E+00
    Fitting Condition:       1E-10

   => Auxiliary Basis Set <=

  Basis Set: (DEF2-TZVPPD AUX)
    Blend: DEF2-TZVPP-JKFIT
    Number of shells: 55
    Number of basis function: 273
    Number of Cartesian functions: 404
    Spherical Harmonics?: true
    Max angular momentum: 6

  ==> DFT Potential <==

   => Composite Functional: MN15-D3BJ <= 

   MN15 Hybrid Meta-GGA Exchange-Correlation Functional

    H. S. Yu, X. He, S. L. Li, and D. G. Truhlar, Chem. Sci. 7, 5032-5051, 2016


    Deriv               =              1
    GGA                 =           TRUE
    Meta                =           TRUE

    Exchange Hybrid     =           TRUE
    MP2 Hybrid          =          FALSE

   => Exchange Functionals <=

    1.0000   XC_HYB_MGGA_X_MN15

   => Exact (HF) Exchange <=

    0.4400               HF 

   => Correlation Functionals <=

    1.0000   XC_MGGA_C_MN15

   => Molecular Quadrature <=

    Radial Scheme          =       TREUTLER
    Pruning Scheme         =           FLAT
    Nuclear Scheme         =       TREUTLER

    BS radius alpha        =              1
    Pruning alpha          =              1
    Radial Points          =             75
    Spherical Points       =            302
    Total Points           =          45039
    Total Blocks           =            422
    Max Points             =            256
    Max Functions          =             73


  -Total Gradient:
     Atom            X                  Y                   Z
    ------   -----------------  -----------------  -----------------
       1        0.000000000000     0.000000000000    -0.126368742946
       2        0.000000000000    -0.000000000000     0.126348495497


*** tstop() called on bp1-compute00216.data.bp.acrc.priv at Fri Oct 29 08:40:37 2021
Module time:
	user time   =      33.51 seconds =       0.56 minutes
	system time =       2.53 seconds =       0.04 minutes
	total time  =          4 seconds =       0.07 minutes
Total time:
	user time   =    2536.44 seconds =      42.27 minutes
	system time =     131.88 seconds =       2.20 minutes
	total time  =        280 seconds =       4.67 minutes


  ==> Adding ECP gradient terms (computed numerically) <==

  -ECP Gradient:
     Atom            X                  Y                   Z
    ------   -----------------  -----------------  -----------------
       1       -0.000000000000     0.000000000000     0.126977680133
       2       -0.000000000000     0.000000000000    -0.126977680142


  -Total Gradient:
     Atom            X                  Y                   Z
    ------   -----------------  -----------------  -----------------
       1       -0.000000000000     0.000000000000     0.000608937187
       2       -0.000000000000     0.000000000000    -0.000629184645


         ----------------------------------------------------------
                                   FINDIF
                     R. A. King and Jonathon Misiewicz
         ---------------------------------------------------------

  Computing second-derivative from gradients using projected, 
  symmetry-adapted, cartesian coordinates.

  3 gradients passed in, including the reference geometry.
  Generating complete list of displacements from unique ones.


-------------------------------------------------------------


  ==> Harmonic Vibrational Analysis <==

  non-mass-weighted Hessian:       Symmetric? True   Hermitian? True   Lin Dep Dim?  5 (0)
  projection of translations (True) and rotations (True) removed 5 degrees of freedom (5)
  total projector:                 Symmetric? True   Hermitian? True   Lin Dep Dim?  5 (5)
  mass-weighted Hessian:           Symmetric? True   Hermitian? True   Lin Dep Dim?  5 (0)
  pre-proj  low-frequency mode:    0.0000i [cm^-1]
  pre-proj  low-frequency mode:    0.0000  [cm^-1]
  pre-proj  low-frequency mode:    0.0000  [cm^-1]
  pre-proj  low-frequency mode:    0.0000  [cm^-1]
  pre-proj  low-frequency mode:    0.0000  [cm^-1]
  pre-proj  all modes:['0.0000i' '0.0000' '0.0000' '0.0000' '0.0000' '1817.5977']
  projected mass-weighted Hessian: Symmetric? True   Hermitian? True   Lin Dep Dim?  5 (5)
  post-proj low-frequency mode:    0.0000i [cm^-1] (TR)
  post-proj low-frequency mode:    0.0000  [cm^-1] (TR)
  post-proj low-frequency mode:    0.0000  [cm^-1] (TR)
  post-proj low-frequency mode:    0.0000  [cm^-1] (TR)
  post-proj low-frequency mode:    0.0000  [cm^-1] (TR)
  post-proj  all modes:['0.0000i' '0.0000' '0.0000' '0.0000' '0.0000' '1817.5977']

  Vibration                       6           
  Freq [cm^-1]                1817.5977       
  Irrep                           A1          
  Reduced mass [u]              1.0172        
  Force const [mDyne/A]         1.9800        
  Turning point v=0 [a0]        0.2552        
  RMS dev v=0 [a0 u^1/2]        0.1820        
  Char temp [K]               2615.1184       
  ----------------------------------------------------------------------------------
      1   AG               0.00  0.00 -0.01   
      2   H                0.00  0.00  1.00   

  ==> Thermochemistry Components <==

  Entropy, S
    Electronic S            0.000 [cal/(mol K)]        0.000 [J/(mol K)]       0.00000000 [mEh/K] (multiplicity = 1)
    Translational S        39.945 [cal/(mol K)]      167.130 [J/(mol K)]       0.06365640 [mEh/K] (mol. weight = 107.9129 [u], P = 101325.00 [Pa])
    Rotational S            8.857 [cal/(mol K)]       37.059 [J/(mol K)]       0.01411485 [mEh/K] (symmetry no. = 1)
    Vibrational S           0.003 [cal/(mol K)]        0.013 [J/(mol K)]       0.00000480 [mEh/K]
  Total S                  48.805 [cal/(mol K)]      204.201 [J/(mol K)]       0.07777605 [mEh/K]
  Correction S              0.000 [cal/(mol K)]        0.000 [J/(mol K)]       0.00000000 [mEh/K]

  Constant volume heat capacity, Cv
    Electronic Cv           0.000 [cal/(mol K)]        0.000 [J/(mol K)]       0.00000000 [mEh/K]
    Translational Cv        2.981 [cal/(mol K)]       12.472 [J/(mol K)]       0.00475022 [mEh/K]
    Rotational Cv           1.987 [cal/(mol K)]        8.314 [J/(mol K)]       0.00316681 [mEh/K]
    Vibrational Cv          0.024 [cal/(mol K)]        0.099 [J/(mol K)]       0.00003781 [mEh/K]
  Total Cv                  4.992 [cal/(mol K)]       20.885 [J/(mol K)]       0.00795484 [mEh/K]
  Correction Cv             0.000 [cal/(mol K)]        0.000 [J/(mol K)]       0.00000000 [mEh/K]

  Constant pressure heat capacity, Cp
    Electronic Cp           0.000 [cal/(mol K)]        0.000 [J/(mol K)]       0.00000000 [mEh/K]
    Translational Cp        4.968 [cal/(mol K)]       20.786 [J/(mol K)]       0.00791703 [mEh/K]
    Rotational Cp           1.987 [cal/(mol K)]        8.314 [J/(mol K)]       0.00316681 [mEh/K]
    Vibrational Cp          0.024 [cal/(mol K)]        0.099 [J/(mol K)]       0.00003781 [mEh/K]
  Total Cp                  6.979 [cal/(mol K)]       29.200 [J/(mol K)]       0.01112165 [mEh/K]
  Correction Cp             0.000 [cal/(mol K)]        0.000 [J/(mol K)]       0.00000000 [mEh/K]

  ==> Thermochemistry Energy Analysis <==

  Raw electronic energy, E0
  Total E0, Electronic energy at well bottom at 0 [K]                 -147.26557763 [Eh]

  Zero-point energy, ZPE_vib = Sum_i nu_i / 2
    Electronic ZPE          0.000 [kcal/mol]        0.000 [kJ/mol]       0.00000000 [Eh]
    Translational ZPE       0.000 [kcal/mol]        0.000 [kJ/mol]       0.00000000 [Eh]
    Rotational ZPE          0.000 [kcal/mol]        0.000 [kJ/mol]       0.00000000 [Eh]
    Vibrational ZPE         2.598 [kcal/mol]       10.872 [kJ/mol]       0.00414079 [Eh]         908.799 [cm^-1]
  Correction ZPE            2.598 [kcal/mol]       10.872 [kJ/mol]       0.00414079 [Eh]         908.799 [cm^-1]
  Total ZPE, Electronic energy at 0 [K]                               -147.26143684 [Eh]

  Thermal Energy, E (includes ZPE)
    Electronic E            0.000 [kcal/mol]        0.000 [kJ/mol]       0.00000000 [Eh]
    Translational E         0.889 [kcal/mol]        3.718 [kJ/mol]       0.00141628 [Eh]
    Rotational E            0.592 [kcal/mol]        2.479 [kJ/mol]       0.00094418 [Eh]
    Vibrational E           2.599 [kcal/mol]       10.875 [kJ/mol]       0.00414208 [Eh]
  Correction E              4.080 [kcal/mol]       17.072 [kJ/mol]       0.00650254 [Eh]
  Total E, Electronic energy at  298.15 [K]                           -147.25907509 [Eh]

  Enthalpy, H_trans = E_trans + k_B * T
    Electronic H            0.000 [kcal/mol]        0.000 [kJ/mol]       0.00000000 [Eh]
    Translational H         1.481 [kcal/mol]        6.197 [kJ/mol]       0.00236046 [Eh]
    Rotational H            0.592 [kcal/mol]        2.479 [kJ/mol]       0.00094418 [Eh]
    Vibrational H           2.599 [kcal/mol]       10.875 [kJ/mol]       0.00414208 [Eh]
  Correction H              4.673 [kcal/mol]       19.551 [kJ/mol]       0.00744672 [Eh]
  Total H, Enthalpy at  298.15 [K]                                    -147.25813090 [Eh]

  Gibbs free energy, G = H - T * S
    Electronic G            0.000 [kcal/mol]        0.000 [kJ/mol]       0.00000000 [Eh]
    Translational G       -10.428 [kcal/mol]      -43.632 [kJ/mol]      -0.01661869 [Eh]
    Rotational G           -2.048 [kcal/mol]       -8.570 [kJ/mol]      -0.00326416 [Eh]
    Vibrational G           2.598 [kcal/mol]       10.871 [kJ/mol]       0.00414065 [Eh]
  Correction G             -9.878 [kcal/mol]      -41.331 [kJ/mol]      -0.01574221 [Eh]
  Total G, Free enthalpy at  298.15 [K]                               -147.28131983 [Eh]

    Psi4 stopped on: Friday, 29 October 2021 08:41AM
    Psi4 wall time for execution: 0:05:09.90

*** Psi4 exiting successfully. Buy a developer a beer!
