Optimizer: Optimization complete!
 3 displacements needed.
 1 2 3
Warning: used thermodynamics relations inappropriate for low-frequency modes: ['192.6855']
At level 1: Red. Int., RFO, no backsteps, dynamic trust
At level 1: Red. Int., RFO, no backsteps, dynamic trust
At level 1: Red. Int., RFO, no backsteps, dynamic trust
Schieber, R. Galvelis, P. Kraus, H. Kruse, R. Di Remigio,
    A. Alenaizan, A. M. James, S. Lehtola, J. P. Misiewicz, M. Scheurer,
    R. A. Shaw, J. B. Schriber, Y. Xie, Z. L. Glick, D. A. Sirianni,
    J. S. O'Brien, J. M. Waldrop, A. Kumar, E. G. Hohenstein,
    B. P. Pritchard, B. R. Brooks, H. F. Schaefer III, A. Yu. Sokolov,
    K. Patkowski, A. E. DePrince III, U. Bozkaya, R. A. King,
    F. A. Evangelista, J. M. Turney, T. D. Crawford, C. D. Sherrill,
    J. Chem. Phys. 152(18) 184108 (2020). https://doi.org/10.1063/5.0006002

                            Additional Code Authors
    E. T. Seidl, C. L. Janssen, E. F. Valeev, M. L. Leininger,
    J. F. Gonthier, R. M. Richard, H. R. McAlexander, M. Saitow, X. Wang,
    P. Verma, and M. H. Lechner

             Previous Authors, Complete List of Code Contributors,
                       and Citations for Specific Modules
    https://github.com/psi4/psi4/blob/master/codemeta.json
    https://github.com/psi4/psi4/graphs/contributors
    http://psicode.org/psi4manual/master/introduction.html#citing-psifour

    -----------------------------------------------------------------------


    Psi4 started on: Tuesday, 02 November 2021 10:20AM

    Process ID: 15827
    Host:       compute452.bc4.acrc.priv
    PSIDATADIR: /mnt/storage/home/zw18965/.conda/envs/p4env/share/psi4
    Memory:     500.0 MiB
    Threads:    28
    
  ==> Input File <==

--------------------------------------------------------------------------
memory 120 GB

molecule {
0 1
Ag       0.000000    0.000000    1.261821 
Ag       0.000000    0.000000   -1.261821 
 }

set dynamic_level 1
set basis Def2-TZVPPD

optimize("MN15-D3BJ")
frequencies("MN15-D3BJ")
--------------------------------------------------------------------------

  Memory set to 111.759 GiB by Python driver.

Scratch directory: /tmp/
gradient() will perform analytic gradient computation.

*** tstart() called on compute452.bc4.acrc.priv
*** at Tue Nov  2 10:20:09 2021

   => Loading Basis Set <=

    Name: DEF2-TZVPPD
    Role: ORBITAL
    Keyword: BASIS
    atoms 1-2 entry AG         line  2174 (ECP: line  3646) file /mnt/storage/home/zw18965/.conda/envs/p4env/share/psi4/basis/def2-tzvppd.gbs 

    !!!  WARNING: ECP capability is in beta. Please check occupations closely.  !!!

   => MN15-D3(BJ): Empirical Dispersion <=

    Grimme's -D3 (BJ-damping) Dispersion Correction
    Grimme S.; Ehrlich S.; Goerigk L. (2011), J. Comput. Chem., 32: 1456
    Parametrisation from:    L. Goerigk, A. Hansen, C. Bauer, S. Ehrlich, A. Najibi, S. Grimme, Phys. Chem. Chem. Phys. 19, 32184-32215, 2017

        s6 =       1.000000
        s8 =       2.097100
        a1 =       0.786200
        a2 =       7.592300


         ---------------------------------------------------------
                                   SCF
               by Justin Turney, Rob Parrish, Andy Simmonett
                          and Daniel G. A. Smith
                              RKS Reference
                       28 Threads, 114440 MiB Core
         ---------------------------------------------------------

  ==> Geometry <==

    Molecular point group: d2h
    Full point group: D_inf_h

    Geometry (in Angstrom), charge = 0, multiplicity = 1:

       Center              X                  Y                   Z               Mass       
    ------------   -----------------  -----------------  -----------------  -----------------
         AG           0.000000000000     0.000000000000     1.261821000000   106.905091600000
         AG           0.000000000000     0.000000000000    -1.261821000000   106.905091600000

  Running in d2h symmetry.

  Rotational constants: A = ************  B =      0.04952  C =      0.04952 [cm^-1]
  Rotational constants: A = ************  B =   1484.54481  C =   1484.54481 [MHz]
  Nuclear repulsion =   75.697334666275978

  Charge       = 0
  Multiplicity = 1
  Electrons    = 38
  Nalpha       = 19
  Nbeta        = 19

  ==> Algorithm <==

  SCF Algorithm Type is DF.
  DIIS enabled.
  MOM disabled.
  Fractional occupation disabled.
  Guess Type is SAD.
  Energy threshold   = 1.00e-08
  Density threshold  = 1.00e-08
  Integral threshold = 1.00e-12

  ==> Primary Basis <==

  Basis Set: DEF2-TZVPPD
    Blend: DEF2-TZVPPD
    Number of shells: 32
    Number of basis functions: 112
    Number of Cartesian functions: 142
    Spherical Harmonics?: true
    Max angular momentum: 4

  Core potential: DEF2-TZVPPD
    Number of shells: 8
    Number of ECP primitives: 28
    Number of ECP core electrons: 56
    Max angular momentum: 3

  ==> DFT Potential <==

   => Composite Functional: MN15-D3BJ <= 

   MN15 Hybrid Meta-GGA Exchange-Correlation Functional

    H. S. Yu, X. He, S. L. Li, and D. G. Truhlar, Chem. Sci. 7, 5032-5051, 2016


    Deriv               =              1
    GGA                 =           TRUE
    Meta                =           TRUE

    Exchange Hybrid     =           TRUE
    MP2 Hybrid          =          FALSE

   => Exchange Functionals <=

    1.0000   XC_HYB_MGGA_X_MN15

   => Exact (HF) Exchange <=

    0.4400               HF 

   => Correlation Functionals <=

    1.0000   XC_MGGA_C_MN15

   => LibXC Density Thresholds  <==

    XC_MGGA_C_MN15:  1.00E-15 
    XC_HYB_MGGA_X_MN15:  1.00E-15 

   => Molecular Quadrature <=

    Radial Scheme          =       TREUTLER
    Pruning Scheme         =           NONE
    Nuclear Scheme         =       TREUTLER

    BS radius alpha        =              1
    Pruning alpha          =              1
    Radial Points          =             75
    Spherical Points       =            302
    Total Points           =          41812
    Total Blocks           =            410
    Max Points             =            253
    Max Functions          =            110
    Weights Tolerance      =       1.00E-15

   => Loading Basis Set <=

    Name: (DEF2-TZVPPD AUX)
    Role: JKFIT
    Keyword: DF_BASIS_SCF
    atoms 1-2 entry AG         line  4364 file /mnt/storage/home/zw18965/.conda/envs/p4env/share/psi4/basis/def2-universal-jkfit.gbs 

  ==> Integral Setup <==

  DFHelper Memory: AOs need 0.055 GiB; user supplied 83.569 GiB. Using in-core AOs.

  ==> MemDFJK: Density-Fitted J/K Matrices <==

    J tasked:                   Yes
    K tasked:                   Yes
    wK tasked:                   No
    OpenMP threads:              28
    Memory [MiB]:             85575
    Algorithm:                 Core
    Schwarz Cutoff:           1E-12
    Mask sparsity (%):       0.9885
    Fitting Condition:        1E-10

   => Auxiliary Basis Set <=

  Basis Set: (DEF2-TZVPPD AUX)
    Blend: DEF2-UNIVERSAL-JKFIT
    Number of shells: 98
    Number of basis functions: 510
    Number of Cartesian functions: 768
    Spherical Harmonics?: true
    Max angular momentum: 6

  Cached 100.0% of DFT collocation blocks in 0.250 [GiB].

  Minimum eigenvalue in the overlap matrix is 8.4233099525E-03.
  Reciprocal condition number of the overlap matrix is 2.1570027367E-03.
    Using symmetric orthogonalization.

  ==> Pre-Iterations <==

  SCF Guess: Superposition of Atomic Densities via on-the-fly atomic UHF (no occupation information).

   -------------------------
    Irrep   Nso     Nmo    
   -------------------------
     Ag        23      23 
     B1g        7       7 
     B2g       13      13 
     B3g       13      13 
     Au         7       7 
     B1u       23      23 
     B2u       13      13 
     B3u       13      13 
   -------------------------
    Total     112     112
   -------------------------

  ==> Iterations <==

                           Total Energy        Delta E     RMS |[F,P]|

   @DF-RKS iter SAD:  -292.89747118784123   -2.92897e+02   0.00000e+00 
   @DF-RKS iter   1:  -293.39048481392797   -4.93014e-01   7.05405e-03 DIIS
   @DF-RKS iter   2:  -293.38870479418097    1.78002e-03   7.84857e-03 DIIS
   @DF-RKS iter   3:  -293.41936748692871   -3.06627e-02   4.36683e-04 DIIS
   @DF-RKS iter   4:  -293.41946028152358   -9.27946e-05   2.26159e-04 DIIS
   @DF-RKS iter   5:  -293.41948865404339   -2.83725e-05   1.08014e-04 DIIS
   @DF-RKS iter   6:  -293.41949723150168   -8.57746e-06   9.88845e-06 DIIS
   @DF-RKS iter   7:  -293.41949780252077   -5.71019e-07   2.30322e-06 DIIS
   @DF-RKS iter   8:  -293.41949781367993   -1.11592e-08   2.28587e-07 DIIS
   @DF-RKS iter   9:  -293.41949781387348   -1.93552e-10   4.52485e-08 DIIS
   @DF-RKS iter  10:  -293.41949781387945   -5.96856e-12   7.77643e-09 DIIS
  Energy and wave function converged.


  ==> Post-Iterations <==

   Electrons on quadrature grid:
      Ntotal   =   37.9999737361 ; deviation = -2.626e-05 

    Orbital Energies [Eh]
    ---------------------

    Doubly Occupied:                                                      

       1Ag    -3.637320     1B1u   -3.636549     2Ag    -2.292400  
       1B2u   -2.285917     1B3u   -2.285917     1B3g   -2.285149  
       1B2g   -2.285149     2B1u   -2.283889     3Ag    -0.403769  
       2B2u   -0.386838     2B3u   -0.386838     4Ag    -0.365611  
       1B1g   -0.365595     3B1u   -0.357030     1Au    -0.357014  
       2B3g   -0.344020     2B2g   -0.344020     4B1u   -0.336646  
       5Ag    -0.238047  

    Virtual:                                                              

       5B1u   -0.071888     3B2u   -0.002091     3B3u   -0.002091  
       6Ag     0.033304     3B3g    0.076413     3B2g    0.076413  
       6B1u    0.137258     7Ag     0.143790     7B1u    0.199159  
       8Ag     0.226155     4B2u    0.230977     4B3u    0.230977  
       4B3g    0.284435     4B2g    0.284435     2B1g    0.411258  
       9Ag     0.411265     8B1u    0.416318     5B2u    0.456989  
       5B3u    0.456989     9B1u    0.508122     2Au     0.508123  
      10Ag     0.624114     5B3g    0.629265     5B2g    0.629265  
      10B1u    0.757509    11Ag     1.400529     6B2u    1.535219  
       6B3u    1.535219    12Ag     1.584713     3B1g    1.584764  
       7B2u    1.602202     7B3u    1.602202     6B3g    1.604538  
       6B2g    1.604538    11B1u    1.615947     3Au     1.615998  
       7B3g    1.641938     7B2g    1.641938     8B2u    1.646183  
       8B3u    1.646183    12B1u    1.665338    13Ag     1.734309  
       8B3g    1.747133     8B2g    1.747133    13B1u    1.764225  
      14Ag     1.938891     4B1g    2.041040    15Ag     2.041046  
       9B2u    2.056772     9B3u    2.056772     4Au     2.080664  
      14B1u    2.080669    16Ag     2.128737     9B3g    2.143279  
       9B2g    2.143279    15B1u    2.294182    16B1u    2.334811  
      10B2u    4.577145    10B3u    4.577145    17Ag     4.588360  
      18Ag     4.616899     5B1g    4.616986    11B2u    4.629192  
      11B3u    4.629192    10B3g    4.631098    10B2g    4.631098  
      17B1u    4.643354     5Au     4.643441    11B3g    4.726843  
      11B2g    4.726843    18B1u    4.921113    12B2u    5.432134  
      12B3u    5.432134    19Ag     5.433948    20Ag     5.434332  
       6B1g    5.434416    19B1u    5.434958     6Au     5.435040  
      13B2u    5.436764    13B3u    5.436764    12B2g    5.436802  
      12B3g    5.436802    13B3g    5.436983    13B2g    5.436983  
      21Ag     5.438901    20B1u    5.438901     7B1g    5.439085  
       7Au     5.439086    21B1u    5.450142    22Ag    32.796084  
      22B1u   33.039581    23Ag   110.563653    23B1u  110.641285  

    Final Occupation by Irrep:
             Ag   B1g   B2g   B3g    Au   B1u   B2u   B3u 
    DOCC [     5,    1,    2,    2,    1,    4,    2,    2 ]

  @DF-RKS Final Energy:  -293.41949781387945

   => Energetics <=

    Nuclear Repulsion Energy =             75.6973346662759781
    One-Electron Energy =                -672.8850969428664257
    Two-Electron Energy =                 319.7441714834853883
    DFT Exchange-Correlation Energy =     -15.9758635307743955
    Empirical Dispersion Energy =          -0.0000434900000000
    VV10 Nonlocal Energy =                  0.0000000000000000
    Total Energy =                       -293.4194978138794454

Computation Completed


Properties will be evaluated at   0.000000,   0.000000,   0.000000 [a0]

Properties computed using the SCF density matrix

  Nuclear Dipole Moment: [e a0]
     X:     0.0000      Y:     0.0000      Z:     0.0000

  Electronic Dipole Moment: [e a0]
     X:     0.0000      Y:     0.0000      Z:     0.0000

  Dipole Moment: [e a0]
     X:     0.0000      Y:     0.0000      Z:     0.0000     Total:     0.0000

  Dipole Moment: [D]
     X:     0.0000      Y:     0.0000      Z:     0.0000     Total:     0.0000


*** tstop() called on compute452.bc4.acrc.priv at Tue Nov  2 10:20:19 2021
Module time:
	user time   =      57.16 seconds =       0.95 minutes
	system time =       2.49 seconds =       0.04 minutes
	total time  =         10 seconds =       0.17 minutes
Total time:
	user time   =      57.16 seconds =       0.95 minutes
	system time =       2.49 seconds =       0.04 minutes
	total time  =         10 seconds =       0.17 minutes

*** tstart() called on compute452.bc4.acrc.priv
*** at Tue Nov  2 10:20:19 2021


         ------------------------------------------------------------
                                   SCF GRAD                          
                          Rob Parrish, Justin Turney,                
                       Andy Simmonett, and Alex Sokolov              
         ------------------------------------------------------------

  ==> Geometry <==

    Molecular point group: d2h
    Full point group: D_inf_h

    Geometry (in Angstrom), charge = 0, multiplicity = 1:

       Center              X                  Y                   Z               Mass       
    ------------   -----------------  -----------------  -----------------  -----------------
         AG           0.000000000000     0.000000000000     1.261821000000   106.905091600000
         AG           0.000000000000     0.000000000000    -1.261821000000   106.905091600000

  Nuclear repulsion =   75.697334666275978

  ==> Basis Set <==

  Basis Set: DEF2-TZVPPD
    Blend: DEF2-TZVPPD
    Number of shells: 32
    Number of basis functions: 112
    Number of Cartesian functions: 142
    Spherical Harmonics?: true
    Max angular momentum: 4

  Core potential: DEF2-TZVPPD
    Number of shells: 8
    Number of ECP primitives: 28
    Number of ECP core electrons: 56
    Max angular momentum: 3

  ==> DFJKGrad: Density-Fitted SCF Gradients <==

    Gradient:                    1
    J tasked:                  Yes
    K tasked:                  Yes
    wK tasked:                  No
    OpenMP threads:             28
    Integrals threads:          28
    Memory [MiB]:            85830
    Schwarz Cutoff:          1E-12
    Fitting Condition:       1E-10

   => Auxiliary Basis Set <=

  Basis Set: (DEF2-TZVPPD AUX)
    Blend: DEF2-UNIVERSAL-JKFIT
    Number of shells: 98
    Number of basis functions: 510
    Number of Cartesian functions: 768
    Spherical Harmonics?: true
    Max angular momentum: 6

  ==> DFT Potential <==

   => Composite Functional: MN15-D3BJ <= 

   MN15 Hybrid Meta-GGA Exchange-Correlation Functional

    H. S. Yu, X. He, S. L. Li, and D. G. Truhlar, Chem. Sci. 7, 5032-5051, 2016


    Deriv               =              1
    GGA                 =           TRUE
    Meta                =           TRUE

    Exchange Hybrid     =           TRUE
    MP2 Hybrid          =          FALSE

   => Exchange Functionals <=

    1.0000   XC_HYB_MGGA_X_MN15

   => Exact (HF) Exchange <=

    0.4400               HF 

   => Correlation Functionals <=

    1.0000   XC_MGGA_C_MN15

   => LibXC Density Thresholds  <==

    XC_MGGA_C_MN15:  1.00E-15 
    XC_HYB_MGGA_X_MN15:  1.00E-15 

   => Molecular Quadrature <=

    Radial Scheme          =       TREUTLER
    Pruning Scheme         =           NONE
    Nuclear Scheme         =       TREUTLER

    BS radius alpha        =              1
    Pruning alpha          =              1
    Radial Points          =             75
    Spherical Points       =            302
    Total Points           =          41812
    Total Blocks           =            410
    Max Points             =            253
    Max Functions          =            110
    Weights Tolerance      =       1.00E-15


  -Total Gradient:
     Atom            X                  Y                   Z
    ------   -----------------  -----------------  -----------------
       1       -0.000000000000     0.000000000000    -0.160921311797
       2       -0.000000000000     0.000000000000     0.160921311797


*** tstop() called on compute452.bc4.acrc.priv at Tue Nov  2 10:20:28 2021
Module time:
	user time   =      38.58 seconds =       0.64 minutes
	system time =       4.35 seconds =       0.07 minutes
	total time  =          9 seconds =       0.15 minutes
Total time:
	user time   =      97.14 seconds =       1.62 minutes
	system time =       6.91 seconds =       0.12 minutes
	total time  =         19 seconds =       0.32 minutes


  ==> Adding ECP gradient terms (computed numerically) <==

  -ECP Gradient:
     Atom            X                  Y                   Z
    ------   -----------------  -----------------  -----------------
       1        0.000000000000    -0.000000000000     0.157164943560
       2        0.000000000000    -0.000000000000    -0.157164943560


  -Total Gradient:
     Atom            X                  Y                   Z
    ------   -----------------  -----------------  -----------------
       1        0.000000000000    -0.000000000000    -0.003756368237
       2        0.000000000000    -0.000000000000     0.003756368237


			-----------------------------------------
			 OPTKING 2.0: for geometry optimizations 
			  - R.A. King,  Bethel University        
			-----------------------------------------
	At level 1: Red. Int., RFO, no backsteps, dynamic trust

	Internal coordinates to be generated automatically.
	Detected frag 1 with atoms:  1 2
	---Fragment 1 Bond Connectivity---
	 1 : 2
	 2 : 1

	---Fragment 1 Geometry and Gradient---
	 AG          0.0000000000        0.0000000000        2.3844961094
	 AG          0.0000000000        0.0000000000       -2.3844961094
	             0.0000000000       -0.0000000000       -0.0037563682
	             0.0000000000       -0.0000000000        0.0037563682

	Previous optimization step data not found.  Starting new optimization.

	---Fragment 1 Intrafragment Coordinates---
	 - Coordinate -           - BOHR/RAD -       - ANG/DEG -
	 R(1,2)           =         4.768992	       2.523642

	Current energy   :      -293.4194978139

	Generating empirical Hessian (Schlegel '84) for each fragment.
	Taking RFO optimization step.
	Going to follow RFO solution 1.
	Using RFO vector 1.
	Norm of target step-size    0.04261
	Projected energy change by RFO approximation:         0.0007463478

	Back-transformation to cartesian coordinates...
	Successfully converged to displaced geometry.

	--- Internal Coordinate Step in ANG or DEG, aJ/ANG or AJ/DEG ---
	 ---------------------------------------------------------------------------
	   Coordinate                Previous        Force       Change         New 
	   ----------                --------       ------       ------       ------
	    1 R(1,2)          =      2.523642     0.030948     0.022548     2.546190
	 ---------------------------------------------------------------------------
	Successfully symmetrized geometry.

  ==> Convergence Check <==

  Measures of convergence in internal coordinates in au.
  Criteria marked as inactive (o), active & met (*), and active & unmet ( ).
  --------------------------------------------------------------------------------------------- ~
   Step     Total Energy     Delta E     MAX Force     RMS Force      MAX Disp      RMS Disp    ~
  --------------------------------------------------------------------------------------------- ~
    Convergence Criteria    1.00e-06 *    3.00e-04 *             o    1.20e-03 *             o  ~
  --------------------------------------------------------------------------------------------- ~
      1    -293.41949781   -2.93e+02      3.76e-03      3.76e-03 o    4.26e-02      4.26e-02 o  ~
  ---------------------------------------------------------------------------------------------

	Writing optimization data to binary file.
	Structure for next step:
	Cartesian Geometry (in Angstrom)
	   AG     0.0000000000   0.0000000000   1.2730948130
	   AG     0.0000000000   0.0000000000  -1.2730948130
			--------------------------
			 OPTKING Finished Execution 
			--------------------------

    Structure for next step:
    Molecular point group: d2h
    Full point group: D_inf_h

    Geometry (in Angstrom), charge = 0, multiplicity = 1:

    AG           0.000000000000     0.000000000000     1.273094817963
    AG           0.000000000000     0.000000000000    -1.273094817963


Scratch directory: /tmp/
gradient() will perform analytic gradient computation.

*** tstart() called on compute452.bc4.acrc.priv
*** at Tue Nov  2 10:21:50 2021

   => Loading Basis Set <=

    Name: DEF2-TZVPPD
    Role: ORBITAL
    Keyword: BASIS
    atoms 1-2 entry AG         line  2174 (ECP: line  3646) file /mnt/storage/home/zw18965/.conda/envs/p4env/share/psi4/basis/def2-tzvppd.gbs 

    !!!  WARNING: ECP capability is in beta. Please check occupations closely.  !!!

   => MN15-D3(BJ): Empirical Dispersion <=

    Grimme's -D3 (BJ-damping) Dispersion Correction
    Grimme S.; Ehrlich S.; Goerigk L. (2011), J. Comput. Chem., 32: 1456
    Parametrisation from:    L. Goerigk, A. Hansen, C. Bauer, S. Ehrlich, A. Najibi, S. Grimme, Phys. Chem. Chem. Phys. 19, 32184-32215, 2017

        s6 =       1.000000
        s8 =       2.097100
        a1 =       0.786200
        a2 =       7.592300


         ---------------------------------------------------------
                                   SCF
               by Justin Turney, Rob Parrish, Andy Simmonett
                          and Daniel G. A. Smith
                              RKS Reference
                       28 Threads, 114440 MiB Core
         ---------------------------------------------------------

  ==> Geometry <==

    Molecular point group: d2h
    Full point group: D_inf_h

    Geometry (in Angstrom), charge = 0, multiplicity = 1:

       Center              X                  Y                   Z               Mass       
    ------------   -----------------  -----------------  -----------------  -----------------
         AG           0.000000000000     0.000000000000     1.273094817963   106.905091600000
         AG           0.000000000000     0.000000000000    -1.273094817963   106.905091600000

  Running in d2h symmetry.

  Rotational constants: A = ************  B =      0.04865  C =      0.04865 [cm^-1]
  Rotational constants: A = ************  B =   1458.36863  C =   1458.36863 [MHz]
  Nuclear repulsion =   75.027001271393146

  Charge       = 0
  Multiplicity = 1
  Electrons    = 38
  Nalpha       = 19
  Nbeta        = 19

  ==> Algorithm <==

  SCF Algorithm Type is DF.
  DIIS enabled.
  MOM disabled.
  Fractional occupation disabled.
  Guess Type is READ.
  Energy threshold   = 1.00e-08
  Density threshold  = 1.00e-08
  Integral threshold = 1.00e-12

  ==> Primary Basis <==

  Basis Set: DEF2-TZVPPD
    Blend: DEF2-TZVPPD
    Number of shells: 32
    Number of basis functions: 112
    Number of Cartesian functions: 142
    Spherical Harmonics?: true
    Max angular momentum: 4

  Core potential: DEF2-TZVPPD
    Number of shells: 8
    Number of ECP primitives: 28
    Number of ECP core electrons: 56
    Max angular momentum: 3

  ==> DFT Potential <==

   => Composite Functional: MN15-D3BJ <= 

   MN15 Hybrid Meta-GGA Exchange-Correlation Functional

    H. S. Yu, X. He, S. L. Li, and D. G. Truhlar, Chem. Sci. 7, 5032-5051, 2016


    Deriv               =              1
    GGA                 =           TRUE
    Meta                =           TRUE

    Exchange Hybrid     =           TRUE
    MP2 Hybrid          =          FALSE

   => Exchange Functionals <=

    1.0000   XC_HYB_MGGA_X_MN15

   => Exact (HF) Exchange <=

    0.4400               HF 

   => Correlation Functionals <=

    1.0000   XC_MGGA_C_MN15

   => LibXC Density Thresholds  <==

    XC_MGGA_C_MN15:  1.00E-15 
    XC_HYB_MGGA_X_MN15:  1.00E-15 

   => Molecular Quadrature <=

    Radial Scheme          =       TREUTLER
    Pruning Scheme         =           NONE
    Nuclear Scheme         =       TREUTLER

    BS radius alpha        =              1
    Pruning alpha          =              1
    Radial Points          =             75
    Spherical Points       =            302
    Total Points           =          41816
    Total Blocks           =            414
    Max Points             =            252
    Max Functions          =            110
    Weights Tolerance      =       1.00E-15

   => Loading Basis Set <=

    Name: (DEF2-TZVPPD AUX)
    Role: JKFIT
    Keyword: DF_BASIS_SCF
    atoms 1-2 entry AG         line  4364 file /mnt/storage/home/zw18965/.conda/envs/p4env/share/psi4/basis/def2-universal-jkfit.gbs 

   => Loading Basis Set <=

    Name: DEF2-TZVPPD
    Role: ORBITAL
    Keyword: BASIS
    atoms 1-2 entry AG         line  2174 (ECP: line  3646) file /mnt/storage/home/zw18965/.conda/envs/p4env/share/psi4/basis/def2-tzvppd.gbs 

    !!!  WARNING: ECP capability is in beta. Please check occupations closely.  !!!

  Reading orbitals from file /tmp/Ag02N0.default.15827.180.npy, no projection.

  ==> Integral Setup <==

  DFHelper Memory: AOs need 0.055 GiB; user supplied 83.571 GiB. Using in-core AOs.

  ==> MemDFJK: Density-Fitted J/K Matrices <==

    J tasked:                   Yes
    K tasked:                   Yes
    wK tasked:                   No
    OpenMP threads:              28
    Memory [MiB]:             85576
    Algorithm:                 Core
    Schwarz Cutoff:           1E-12
    Mask sparsity (%):       1.0523
    Fitting Condition:        1E-10

   => Auxiliary Basis Set <=

  Basis Set: (DEF2-TZVPPD AUX)
    Blend: DEF2-UNIVERSAL-JKFIT
    Number of shells: 98
    Number of basis functions: 510
    Number of Cartesian functions: 768
    Spherical Harmonics?: true
    Max angular momentum: 6

  Cached 100.0% of DFT collocation blocks in 0.248 [GiB].

  Minimum eigenvalue in the overlap matrix is 8.7305652462E-03.
  Reciprocal condition number of the overlap matrix is 2.2433047895E-03.
    Using symmetric orthogonalization.

  ==> Pre-Iterations <==

  SCF Guess: Orbitals guess was supplied from a previous computation.

   -------------------------------------------------------
    Irrep   Nso     Nmo     Nalpha   Nbeta   Ndocc  Nsocc
   -------------------------------------------------------
     Ag        23      23       5       5       5       0
     B1g        7       7       1       1       1       0
     B2g       13      13       2       2       2       0
     B3g       13      13       2       2       2       0
     Au         7       7       1       1       1       0
     B1u       23      23       4       4       4       0
     B2u       13      13       2       2       2       0
     B3u       13      13       2       2       2       0
   -------------------------------------------------------
    Total     112     112      19      19      19       0
   -------------------------------------------------------

  ==> Iterations <==

                           Total Energy        Delta E     RMS |[F,P]|

   @DF-RKS iter   0:  -293.41968477521482   -2.93420e+02   7.60318e-04 
   @DF-RKS iter   1:  -293.41958243783142    1.02337e-04   3.69780e-05 DIIS
   @DF-RKS iter   2:  -293.41958286150924   -4.23678e-07   3.40226e-05 DIIS
   @DF-RKS iter   3:  -293.41958333376363   -4.72254e-07   7.76077e-06 DIIS
   @DF-RKS iter   4:  -293.41958337726993   -4.35063e-08   1.36409e-06 DIIS
   @DF-RKS iter   5:  -293.41958338332017   -6.05024e-09   8.63669e-07 DIIS
   @DF-RKS iter   6:  -293.41958338398103   -6.60862e-10   2.66276e-07 DIIS
   @DF-RKS iter   7:  -293.41958338412007   -1.39039e-10   3.71146e-08 DIIS
   @DF-RKS iter   8:  -293.41958338412172   -1.64846e-12   5.21140e-09 DIIS
  Energy and wave function converged.


  ==> Post-Iterations <==

   Electrons on quadrature grid:
      Ntotal   =   37.9999742956 ; deviation = -2.570e-05 

    Orbital Energies [Eh]
    ---------------------

    Doubly Occupied:                                                      

       1Ag    -3.637082     1B1u   -3.636395     2Ag    -2.291708  
       1B2u   -2.285760     1B3u   -2.285760     1B3g   -2.285062  
       1B2g   -2.285062     2B1u   -2.283898     3Ag    -0.401881  
       2B2u   -0.385548     2B3u   -0.385548     4Ag    -0.365316  
       1B1g   -0.365301     3B1u   -0.357176     1Au    -0.357161  
       2B3g   -0.344692     2B2g   -0.344692     4B1u   -0.337530  
       5Ag    -0.237442  

    Virtual:                                                              

       5B1u   -0.072578     3B3u   -0.001967     3B2u   -0.001967  
       6Ag     0.032725     3B2g    0.075755     3B3g    0.075755  
       6B1u    0.136494     7Ag     0.143663     7B1u    0.199182  
       8Ag     0.225752     4B2u    0.231294     4B3u    0.231294  
       4B3g    0.283722     4B2g    0.283722     2B1g    0.411749  
       9Ag     0.411755     8B1u    0.412365     5B2u    0.454792  
       5B3u    0.454792     9B1u    0.507287     2Au     0.507289  
      10Ag     0.622583     5B3g    0.628267     5B2g    0.628267  
      10B1u    0.755225    11Ag     1.414723     6B3u    1.541144  
       6B2u    1.541144    12Ag     1.586295     3B1g    1.586344  
       7B3u    1.602368     7B2u    1.602368     6B2g    1.604433  
       6B3g    1.604433    11B1u    1.614553     3Au     1.614602  
       7B3g    1.638585     7B2g    1.638585     8B2u    1.646099  
       8B3u    1.646099    12B1u    1.665201    13Ag     1.734808  
       8B3g    1.743220     8B2g    1.743220    13B1u    1.755846  
      14Ag     1.932368     4B1g    2.041305    15Ag     2.041305  
       9B3u    2.060292     9B2u    2.060292    14B1u    2.080347  
       4Au     2.080347    16Ag     2.133584     9B3g    2.140311  
       9B2g    2.140311    15B1u    2.289207    16B1u    2.321333  
      10B3u    4.581364    10B2u    4.581364    17Ag     4.587230  
      18Ag     4.618379     5B1g    4.618452    11B2u    4.629426  
      11B3u    4.629426    10B3g    4.631100    10B2g    4.631100  
      17B1u    4.642108     5Au     4.642181    11B2g    4.720378  
      11B3g    4.720378    18B1u    4.908906    12B2u    5.432622  
      12B3u    5.432622    19Ag     5.434161    20Ag     5.434642  
       6B1g    5.434734    19B1u    5.435156     6Au     5.435246  
      12B3g    5.436785    12B2g    5.436785    13B3u    5.436914  
      13B2u    5.436914    13B2g    5.436962    13B3g    5.436962  
      21Ag     5.438922    20B1u    5.438922     7B1g    5.439116  
       7Au     5.439116    21B1u    5.447836    22Ag    32.792490  
      22B1u   33.035705    23Ag   110.562650    23B1u  110.640154  

    Final Occupation by Irrep:
             Ag   B1g   B2g   B3g    Au   B1u   B2u   B3u 
    DOCC [     5,    1,    2,    2,    1,    4,    2,    2 ]

  @DF-RKS Final Energy:  -293.41958338412172

   => Energetics <=

    Nuclear Repulsion Energy =             75.0270012713931465
    One-Electron Energy =                -671.5556949016457793
    Two-Electron Energy =                 319.0832454044226552
    DFT Exchange-Correlation Energy =     -15.9740916482917825
    Empirical Dispersion Energy =          -0.0000435100000000
    VV10 Nonlocal Energy =                  0.0000000000000000
    Total Energy =                       -293.4195833841217791

Computation Completed


Properties will be evaluated at   0.000000,   0.000000,   0.000000 [a0]

Properties computed using the SCF density matrix

  Nuclear Dipole Moment: [e a0]
     X:     0.0000      Y:     0.0000      Z:     0.0000

  Electronic Dipole Moment: [e a0]
     X:     0.0000      Y:     0.0000      Z:     0.0000

  Dipole Moment: [e a0]
     X:     0.0000      Y:     0.0000      Z:     0.0000     Total:     0.0000

  Dipole Moment: [D]
     X:     0.0000      Y:     0.0000      Z:     0.0000     Total:     0.0000


*** tstop() called on compute452.bc4.acrc.priv at Tue Nov  2 10:21:55 2021
Module time:
	user time   =      46.23 seconds =       0.77 minutes
	system time =       1.45 seconds =       0.02 minutes
	total time  =          5 seconds =       0.08 minutes
Total time:
	user time   =     516.12 seconds =       8.60 minutes
	system time =      13.13 seconds =       0.22 minutes
	total time  =        106 seconds =       1.77 minutes

*** tstart() called on compute452.bc4.acrc.priv
*** at Tue Nov  2 10:21:55 2021


         ------------------------------------------------------------
                                   SCF GRAD                          
                          Rob Parrish, Justin Turney,                
                       Andy Simmonett, and Alex Sokolov              
         ------------------------------------------------------------

  ==> Geometry <==

    Molecular point group: d2h
    Full point group: D_inf_h

    Geometry (in Angstrom), charge = 0, multiplicity = 1:

       Center              X                  Y                   Z               Mass       
    ------------   -----------------  -----------------  -----------------  -----------------
         AG           0.000000000000     0.000000000000     1.273094817963   106.905091600000
         AG           0.000000000000     0.000000000000    -1.273094817963   106.905091600000

  Nuclear repulsion =   75.027001271393146

  ==> Basis Set <==

  Basis Set: DEF2-TZVPPD
    Blend: DEF2-TZVPPD
    Number of shells: 32
    Number of basis functions: 112
    Number of Cartesian functions: 142
    Spherical Harmonics?: true
    Max angular momentum: 4

  Core potential: DEF2-TZVPPD
    Number of shells: 8
    Number of ECP primitives: 28
    Number of ECP core electrons: 56
    Max angular momentum: 3

  ==> DFJKGrad: Density-Fitted SCF Gradients <==

    Gradient:                    1
    J tasked:                  Yes
    K tasked:                  Yes
    wK tasked:                  No
    OpenMP threads:             28
    Integrals threads:          28
    Memory [MiB]:            85830
    Schwarz Cutoff:          1E-12
    Fitting Condition:       1E-10

   => Auxiliary Basis Set <=

  Basis Set: (DEF2-TZVPPD AUX)
    Blend: DEF2-UNIVERSAL-JKFIT
    Number of shells: 98
    Number of basis functions: 510
    Number of Cartesian functions: 768
    Spherical Harmonics?: true
    Max angular momentum: 6

  ==> DFT Potential <==

   => Composite Functional: MN15-D3BJ <= 

   MN15 Hybrid Meta-GGA Exchange-Correlation Functional

    H. S. Yu, X. He, S. L. Li, and D. G. Truhlar, Chem. Sci. 7, 5032-5051, 2016


    Deriv               =              1
    GGA                 =           TRUE
    Meta                =           TRUE

    Exchange Hybrid     =           TRUE
    MP2 Hybrid          =          FALSE

   => Exchange Functionals <=

    1.0000   XC_HYB_MGGA_X_MN15

   => Exact (HF) Exchange <=

    0.4400               HF 

   => Correlation Functionals <=

    1.0000   XC_MGGA_C_MN15

   => LibXC Density Thresholds  <==

    XC_MGGA_C_MN15:  1.00E-15 
    XC_HYB_MGGA_X_MN15:  1.00E-15 

   => Molecular Quadrature <=

    Radial Scheme          =       TREUTLER
    Pruning Scheme         =           NONE
    Nuclear Scheme         =       TREUTLER

    BS radius alpha        =              1
    Pruning alpha          =              1
    Radial Points          =             75
    Spherical Points       =            302
    Total Points           =          41816
    Total Blocks           =            414
    Max Points             =            252
    Max Functions          =            110
    Weights Tolerance      =       1.00E-15


  -Total Gradient:
     Atom            X                  Y                   Z
    ------   -----------------  -----------------  -----------------
       1       -0.000000000000     0.000000000000    -0.150847538413
       2       -0.000000000000     0.000000000000     0.150847538413


*** tstop() called on compute452.bc4.acrc.priv at Tue Nov  2 10:22:03 2021
Module time:
	user time   =      38.27 seconds =       0.64 minutes
	system time =       1.54 seconds =       0.03 minutes
	total time  =          8 seconds =       0.13 minutes
Total time:
	user time   =     557.49 seconds =       9.29 minutes
	system time =      14.85 seconds =       0.25 minutes
	total time  =        114 seconds =       1.90 minutes


  ==> Adding ECP gradient terms (computed numerically) <==

  -ECP Gradient:
     Atom            X                  Y                   Z
    ------   -----------------  -----------------  -----------------
       1        0.000000000000     0.000000000000     0.150477666618
       2        0.000000000000     0.000000000000    -0.150477666618


  -Total Gradient:
     Atom            X                  Y                   Z
    ------   -----------------  -----------------  -----------------
       1       -0.000000000000     0.000000000000    -0.000369871795
       2       -0.000000000000     0.000000000000     0.000369871795


			-----------------------------------------
			 OPTKING 2.0: for geometry optimizations 
			  - R.A. King,  Bethel University        
			-----------------------------------------
	At level 1: Red. Int., RFO, no backsteps, dynamic trust

	Previous internal coordinate definitions found.
	---Fragment 1 Geometry and Gradient---
	 AG          0.0000000000        0.0000000000        2.4058005377
	 AG          0.0000000000        0.0000000000       -2.4058005377
	            -0.0000000000        0.0000000000       -0.0003698718
	            -0.0000000000        0.0000000000        0.0003698718

	---Fragment 1 Intrafragment Coordinates---
	 - Coordinate -           - BOHR/RAD -       - ANG/DEG -
	 R(1,2)           =         4.811601	       2.546190

	Current energy   :      -293.4195833841

	Energy change for the previous step:
		Projected    :         0.0007463478
		Actual       :        -0.0000855702

	Performing BFGS update.
	Previous computed or guess Hessian on step 1.
	Steps to be used in Hessian update: 1
	Taking RFO optimization step.
	Going to follow RFO solution 1.
	Using RFO vector 1.
	Norm of target step-size    0.00465
	Projected energy change by RFO approximation:         0.0000091067

	Back-transformation to cartesian coordinates...
	Successfully converged to displaced geometry.

	--- Internal Coordinate Step in ANG or DEG, aJ/ANG or AJ/DEG ---
	 ---------------------------------------------------------------------------
	   Coordinate                Previous        Force       Change         New 
	   ----------                --------       ------       ------       ------
	    1 R(1,2)          =      2.546190     0.003047     0.002463     2.548652
	 ---------------------------------------------------------------------------
	Successfully symmetrized geometry.

  ==> Convergence Check <==

  Measures of convergence in internal coordinates in au.
  Criteria marked as inactive (o), active & met (*), and active & unmet ( ).
  ---------------------------------------------------------------------------------------------
   Step     Total Energy     Delta E     MAX Force     RMS Force      MAX Disp      RMS Disp   
  ---------------------------------------------------------------------------------------------
    Convergence Criteria    1.00e-06 *    3.00e-04 *             o    1.20e-03 *             o
  ---------------------------------------------------------------------------------------------
      2    -293.41958338   -8.56e-05      3.70e-04      3.70e-04 o    4.65e-03      4.65e-03 o  ~
  ---------------------------------------------------------------------------------------------

	Writing optimization data to binary file.
	Structure for next step:
	Cartesian Geometry (in Angstrom)
	   AG     0.0000000000   0.0000000000   1.2743261082
	   AG     0.0000000000   0.0000000000  -1.2743261082
			--------------------------
			 OPTKING Finished Execution 
			--------------------------

    Structure for next step:
    Molecular point group: d2h
    Full point group: D_inf_h

    Geometry (in Angstrom), charge = 0, multiplicity = 1:

    AG           0.000000000000     0.000000000000     1.274326113214
    AG           0.000000000000     0.000000000000    -1.274326113214


Scratch directory: /tmp/
gradient() will perform analytic gradient computation.

*** tstart() called on compute452.bc4.acrc.priv
*** at Tue Nov  2 10:23:25 2021

   => Loading Basis Set <=

    Name: DEF2-TZVPPD
    Role: ORBITAL
    Keyword: BASIS
    atoms 1-2 entry AG         line  2174 (ECP: line  3646) file /mnt/storage/home/zw18965/.conda/envs/p4env/share/psi4/basis/def2-tzvppd.gbs 

    !!!  WARNING: ECP capability is in beta. Please check occupations closely.  !!!

   => MN15-D3(BJ): Empirical Dispersion <=

    Grimme's -D3 (BJ-damping) Dispersion Correction
    Grimme S.; Ehrlich S.; Goerigk L. (2011), J. Comput. Chem., 32: 1456
    Parametrisation from:    L. Goerigk, A. Hansen, C. Bauer, S. Ehrlich, A. Najibi, S. Grimme, Phys. Chem. Chem. Phys. 19, 32184-32215, 2017

        s6 =       1.000000
        s8 =       2.097100
        a1 =       0.786200
        a2 =       7.592300


         ---------------------------------------------------------
                                   SCF
               by Justin Turney, Rob Parrish, Andy Simmonett
                          and Daniel G. A. Smith
                              RKS Reference
                       28 Threads, 114440 MiB Core
         ---------------------------------------------------------

  ==> Geometry <==

    Molecular point group: d2h
    Full point group: D_inf_h

    Geometry (in Angstrom), charge = 0, multiplicity = 1:

       Center              X                  Y                   Z               Mass       
    ------------   -----------------  -----------------  -----------------  -----------------
         AG           0.000000000000     0.000000000000     1.274326113214   106.905091600000
         AG           0.000000000000     0.000000000000    -1.274326113214   106.905091600000

  Running in d2h symmetry.

  Rotational constants: A = ************  B =      0.04855  C =      0.04855 [cm^-1]
  Rotational constants: A = ************  B =   1455.55174  C =   1455.55174 [MHz]
  Nuclear repulsion =   74.954507747653608

  Charge       = 0
  Multiplicity = 1
  Electrons    = 38
  Nalpha       = 19
  Nbeta        = 19

  ==> Algorithm <==

  SCF Algorithm Type is DF.
  DIIS enabled.
  MOM disabled.
  Fractional occupation disabled.
  Guess Type is READ.
  Energy threshold   = 1.00e-08
  Density threshold  = 1.00e-08
  Integral threshold = 1.00e-12

  ==> Primary Basis <==

  Basis Set: DEF2-TZVPPD
    Blend: DEF2-TZVPPD
    Number of shells: 32
    Number of basis functions: 112
    Number of Cartesian functions: 142
    Spherical Harmonics?: true
    Max angular momentum: 4

  Core potential: DEF2-TZVPPD
    Number of shells: 8
    Number of ECP primitives: 28
    Number of ECP core electrons: 56
    Max angular momentum: 3

  ==> DFT Potential <==

   => Composite Functional: MN15-D3BJ <= 

   MN15 Hybrid Meta-GGA Exchange-Correlation Functional

    H. S. Yu, X. He, S. L. Li, and D. G. Truhlar, Chem. Sci. 7, 5032-5051, 2016


    Deriv               =              1
    GGA                 =           TRUE
    Meta                =           TRUE

    Exchange Hybrid     =           TRUE
    MP2 Hybrid          =          FALSE

   => Exchange Functionals <=

    1.0000   XC_HYB_MGGA_X_MN15

   => Exact (HF) Exchange <=

    0.4400               HF 

   => Correlation Functionals <=

    1.0000   XC_MGGA_C_MN15

   => LibXC Density Thresholds  <==

    XC_MGGA_C_MN15:  1.00E-15 
    XC_HYB_MGGA_X_MN15:  1.00E-15 

   => Molecular Quadrature <=

    Radial Scheme          =       TREUTLER
    Pruning Scheme         =           NONE
    Nuclear Scheme         =       TREUTLER

    BS radius alpha        =              1
    Pruning alpha          =              1
    Radial Points          =             75
    Spherical Points       =            302
    Total Points           =          41812
    Total Blocks           =            414
    Max Points             =            252
    Max Functions          =            110
    Weights Tolerance      =       1.00E-15

   => Loading Basis Set <=

    Name: (DEF2-TZVPPD AUX)
    Role: JKFIT
    Keyword: DF_BASIS_SCF
    atoms 1-2 entry AG         line  4364 file /mnt/storage/home/zw18965/.conda/envs/p4env/share/psi4/basis/def2-universal-jkfit.gbs 

   => Loading Basis Set <=

    Name: DEF2-TZVPPD
    Role: ORBITAL
    Keyword: BASIS
    atoms 1-2 entry AG         line  2174 (ECP: line  3646) file /mnt/storage/home/zw18965/.conda/envs/p4env/share/psi4/basis/def2-tzvppd.gbs 

    !!!  WARNING: ECP capability is in beta. Please check occupations closely.  !!!

  Reading orbitals from file /tmp/Ag02N0.default.15827.180.npy, no projection.

  ==> Integral Setup <==

  DFHelper Memory: AOs need 0.055 GiB; user supplied 83.571 GiB. Using in-core AOs.

  ==> MemDFJK: Density-Fitted J/K Matrices <==

    J tasked:                   Yes
    K tasked:                   Yes
    wK tasked:                   No
    OpenMP threads:              28
    Memory [MiB]:             85576
    Algorithm:                 Core
    Schwarz Cutoff:           1E-12
    Mask sparsity (%):       1.0523
    Fitting Condition:        1E-10

   => Auxiliary Basis Set <=

  Basis Set: (DEF2-TZVPPD AUX)
    Blend: DEF2-UNIVERSAL-JKFIT
    Number of shells: 98
    Number of basis functions: 510
    Number of Cartesian functions: 768
    Spherical Harmonics?: true
    Max angular momentum: 6

  Cached 100.0% of DFT collocation blocks in 0.248 [GiB].

  Minimum eigenvalue in the overlap matrix is 8.7644936971E-03.
  Reciprocal condition number of the overlap matrix is 2.2528591385E-03.
    Using symmetric orthogonalization.

  ==> Pre-Iterations <==

  SCF Guess: Orbitals guess was supplied from a previous computation.

   -------------------------------------------------------
    Irrep   Nso     Nmo     Nalpha   Nbeta   Ndocc  Nsocc
   -------------------------------------------------------
     Ag        23      23       5       5       5       0
     B1g        7       7       1       1       1       0
     B2g       13      13       2       2       2       0
     B3g       13      13       2       2       2       0
     Au         7       7       1       1       1       0
     B1u       23      23       4       4       4       0
     B2u       13      13       2       2       2       0
     B3u       13      13       2       2       2       0
   -------------------------------------------------------
    Total     112     112      19      19      19       0
   -------------------------------------------------------

  ==> Iterations <==

                           Total Energy        Delta E     RMS |[F,P]|

   @DF-RKS iter   0:  -293.41957439786808   -2.93420e+02   8.16936e-05 
   @DF-RKS iter   1:  -293.41958414009019   -9.74222e-06   3.59970e-06 DIIS
   @DF-RKS iter   2:  -293.41958414626515   -6.17496e-09   2.98928e-06 DIIS
   @DF-RKS iter   3:  -293.41958414979507   -3.52992e-09   8.33648e-07 DIIS
   @DF-RKS iter   4:  -293.41958415029194   -4.96868e-10   1.44213e-07 DIIS
   @DF-RKS iter   5:  -293.41958415036243   -7.04858e-11   7.78397e-08 DIIS
   @DF-RKS iter   6:  -293.41958415036845   -6.02540e-12   3.02953e-08 DIIS
   @DF-RKS iter   7:  -293.41958415037004   -1.59162e-12   4.24069e-09 DIIS
  Energy and wave function converged.


  ==> Post-Iterations <==

   Electrons on quadrature grid:
      Ntotal   =   37.9999743891 ; deviation = -2.561e-05 

    Orbital Energies [Eh]
    ---------------------

    Doubly Occupied:                                                      

       1Ag    -3.637057     1B1u   -3.636379     2Ag    -2.291636  
       1B3u   -2.285744     1B2u   -2.285744     1B2g   -2.285053  
       1B3g   -2.285053     2B1u   -2.283899     3Ag    -0.401680  
       2B3u   -0.385412     2B2u   -0.385412     4Ag    -0.365286  
       1B1g   -0.365271     3B1u   -0.357192     1Au    -0.357177  
       2B2g   -0.344764     2B3g   -0.344764     4B1u   -0.337624  
       5Ag    -0.237376  

    Virtual:                                                              

       5B1u   -0.072654     3B2u   -0.001954     3B3u   -0.001954  
       6Ag     0.032663     3B3g    0.075684     3B2g    0.075684  
       6B1u    0.136411     7Ag     0.143649     7B1u    0.199183  
       8Ag     0.225709     4B3u    0.231328     4B2u    0.231328  
       4B2g    0.283644     4B3g    0.283644     2B1g    0.411803  
       9Ag     0.411810     8B1u    0.411935     5B3u    0.454552  
       5B2u    0.454552     9B1u    0.507195     2Au     0.507197  
      10Ag     0.622409     5B3g    0.628157     5B2g    0.628157  
      10B1u    0.754982    11Ag     1.416265     6B3u    1.541756  
       6B2u    1.541756    12Ag     1.586459     3B1g    1.586508  
       7B2u    1.602384     7B3u    1.602384     6B3g    1.604422  
       6B2g    1.604422    11B1u    1.614408     3Au     1.614457  
       7B2g    1.638221     7B3g    1.638221     8B3u    1.646093  
       8B2u    1.646093    12B1u    1.665166    13Ag     1.734854  
       8B2g    1.742808     8B3g    1.742808    13B1u    1.754959  
      14Ag     1.931671    15Ag     2.041330     4B1g    2.041330  
       9B3u    2.060665     9B2u    2.060665    14B1u    2.080312  
       4Au     2.080314    16Ag     2.134141     9B2g    2.140005  
       9B3g    2.140005    15B1u    2.288475    16B1u    2.320091  
      10B3u    4.581816    10B2u    4.581816    17Ag     4.587133  
      18Ag     4.618532     5B1g    4.618603    11B2u    4.629449  
      11B3u    4.629449    10B3g    4.631100    10B2g    4.631100  
      17B1u    4.641979     5Au     4.642050    11B2g    4.719693  
      11B3g    4.719693    18B1u    4.907588    12B2u    5.432672  
      12B3u    5.432672    19Ag     5.434181    20Ag     5.434673  
       6B1g    5.434766    19B1u    5.435176     6Au     5.435268  
      12B3g    5.436772    12B2g    5.436772    13B3u    5.436929  
      13B2u    5.436929    13B2g    5.436975    13B3g    5.436975  
      21Ag     5.438924    20B1u    5.438924     7B1g    5.439118  
       7Au     5.439118    21B1u    5.447615    22Ag    32.792100  
      22B1u   33.035268    23Ag   110.562540    23B1u  110.640026  

    Final Occupation by Irrep:
             Ag   B1g   B2g   B3g    Au   B1u   B2u   B3u 
    DOCC [     5,    1,    2,    2,    1,    4,    2,    2 ]

  @DF-RKS Final Energy:  -293.41958415037004

   => Energetics <=

    Nuclear Repulsion Energy =             74.9545077476536079
    One-Electron Energy =                -671.4118644078736224
    Two-Electron Energy =                 319.0117187780772383
    DFT Exchange-Correlation Energy =     -15.9739027582272044
    Empirical Dispersion Energy =          -0.0000435100000000
    VV10 Nonlocal Energy =                  0.0000000000000000
    Total Energy =                       -293.4195841503700422

Computation Completed


Properties will be evaluated at   0.000000,   0.000000,   0.000000 [a0]

Properties computed using the SCF density matrix

  Nuclear Dipole Moment: [e a0]
     X:     0.0000      Y:     0.0000      Z:    -0.0000

  Electronic Dipole Moment: [e a0]
     X:     0.0000      Y:     0.0000      Z:     0.0000

  Dipole Moment: [e a0]
     X:     0.0000      Y:     0.0000      Z:    -0.0000     Total:     0.0000

  Dipole Moment: [D]
     X:     0.0000      Y:     0.0000      Z:    -0.0000     Total:     0.0000


*** tstop() called on compute452.bc4.acrc.priv at Tue Nov  2 10:23:30 2021
Module time:
	user time   =      44.48 seconds =       0.74 minutes
	system time =       1.35 seconds =       0.02 minutes
	total time  =          5 seconds =       0.08 minutes
Total time:
	user time   =     974.45 seconds =      16.24 minutes
	system time =      20.52 seconds =       0.34 minutes
	total time  =        201 seconds =       3.35 minutes

*** tstart() called on compute452.bc4.acrc.priv
*** at Tue Nov  2 10:23:30 2021


         ------------------------------------------------------------
                                   SCF GRAD                          
                          Rob Parrish, Justin Turney,                
                       Andy Simmonett, and Alex Sokolov              
         ------------------------------------------------------------

  ==> Geometry <==

    Molecular point group: d2h
    Full point group: D_inf_h

    Geometry (in Angstrom), charge = 0, multiplicity = 1:

       Center              X                  Y                   Z               Mass       
    ------------   -----------------  -----------------  -----------------  -----------------
         AG           0.000000000000     0.000000000000     1.274326113214   106.905091600000
         AG           0.000000000000     0.000000000000    -1.274326113214   106.905091600000

  Nuclear repulsion =   74.954507747653608

  ==> Basis Set <==

  Basis Set: DEF2-TZVPPD
    Blend: DEF2-TZVPPD
    Number of shells: 32
    Number of basis functions: 112
    Number of Cartesian functions: 142
    Spherical Harmonics?: true
    Max angular momentum: 4

  Core potential: DEF2-TZVPPD
    Number of shells: 8
    Number of ECP primitives: 28
    Number of ECP core electrons: 56
    Max angular momentum: 3

  ==> DFJKGrad: Density-Fitted SCF Gradients <==

    Gradient:                    1
    J tasked:                  Yes
    K tasked:                  Yes
    wK tasked:                  No
    OpenMP threads:             28
    Integrals threads:          28
    Memory [MiB]:            85830
    Schwarz Cutoff:          1E-12
    Fitting Condition:       1E-10

   => Auxiliary Basis Set <=

  Basis Set: (DEF2-TZVPPD AUX)
    Blend: DEF2-UNIVERSAL-JKFIT
    Number of shells: 98
    Number of basis functions: 510
    Number of Cartesian functions: 768
    Spherical Harmonics?: true
    Max angular momentum: 6

  ==> DFT Potential <==

   => Composite Functional: MN15-D3BJ <= 

   MN15 Hybrid Meta-GGA Exchange-Correlation Functional

    H. S. Yu, X. He, S. L. Li, and D. G. Truhlar, Chem. Sci. 7, 5032-5051, 2016


    Deriv               =              1
    GGA                 =           TRUE
    Meta                =           TRUE

    Exchange Hybrid     =           TRUE
    MP2 Hybrid          =          FALSE

   => Exchange Functionals <=

    1.0000   XC_HYB_MGGA_X_MN15

   => Exact (HF) Exchange <=

    0.4400               HF 

   => Correlation Functionals <=

    1.0000   XC_MGGA_C_MN15

   => LibXC Density Thresholds  <==

    XC_MGGA_C_MN15:  1.00E-15 
    XC_HYB_MGGA_X_MN15:  1.00E-15 

   => Molecular Quadrature <=

    Radial Scheme          =       TREUTLER
    Pruning Scheme         =           NONE
    Nuclear Scheme         =       TREUTLER

    BS radius alpha        =              1
    Pruning alpha          =              1
    Radial Points          =             75
    Spherical Points       =            302
    Total Points           =          41812
    Total Blocks           =            414
    Max Points             =            252
    Max Functions          =            110
    Weights Tolerance      =       1.00E-15


  -Total Gradient:
     Atom            X                  Y                   Z
    ------   -----------------  -----------------  -----------------
       1       -0.000000000000     0.000000000000    -0.149785225665
       2       -0.000000000000     0.000000000000     0.149785225665


*** tstop() called on compute452.bc4.acrc.priv at Tue Nov  2 10:23:37 2021
Module time:
	user time   =      38.44 seconds =       0.64 minutes
	system time =       1.50 seconds =       0.03 minutes
	total time  =          7 seconds =       0.12 minutes
Total time:
	user time   =    1016.07 seconds =      16.93 minutes
	system time =      22.20 seconds =       0.37 minutes
	total time  =        208 seconds =       3.47 minutes


  ==> Adding ECP gradient terms (computed numerically) <==

  -ECP Gradient:
     Atom            X                  Y                   Z
    ------   -----------------  -----------------  -----------------
       1        0.000000000000    -0.000000000000     0.149766441095
       2        0.000000000000    -0.000000000000    -0.149766441095


  -Total Gradient:
     Atom            X                  Y                   Z
    ------   -----------------  -----------------  -----------------
       1        0.000000000000    -0.000000000000    -0.000018784571
       2        0.000000000000    -0.000000000000     0.000018784571


			-----------------------------------------
			 OPTKING 2.0: for geometry optimizations 
			  - R.A. King,  Bethel University        
			-----------------------------------------
	At level 1: Red. Int., RFO, no backsteps, dynamic trust

	Previous internal coordinate definitions found.
	---Fragment 1 Geometry and Gradient---
	 AG          0.0000000000        0.0000000000        2.4081273485
	 AG          0.0000000000        0.0000000000       -2.4081273485
	             0.0000000000       -0.0000000000       -0.0000187846
	             0.0000000000       -0.0000000000        0.0000187846

	---Fragment 1 Intrafragment Coordinates---
	 - Coordinate -           - BOHR/RAD -       - ANG/DEG -
	 R(1,2)           =         4.816255	       2.548652

	Current energy   :      -293.4195841504

	Energy change for the previous step:
		Projected    :         0.0000091067
		Actual       :        -0.0000007662

	Performing BFGS update.
	Previous computed or guess Hessian on step 1.
	Steps to be used in Hessian update: 2 1
	Taking RFO optimization step.
	Going to follow RFO solution 1.
	Using RFO vector 1.
	Norm of target step-size    0.00024
	Projected energy change by RFO approximation:         0.0000000237

	Back-transformation to cartesian coordinates...
	Successfully converged to displaced geometry.

	--- Internal Coordinate Step in ANG or DEG, aJ/ANG or AJ/DEG ---
	 ---------------------------------------------------------------------------
	   Coordinate                Previous        Force       Change         New 
	   ----------                --------       ------       ------       ------
	    1 R(1,2)          =      2.548652     0.000155     0.000126     2.548778
	 ---------------------------------------------------------------------------
	Successfully symmetrized geometry.

  ==> Convergence Check <==

  Measures of convergence in internal coordinates in au.
  Criteria marked as inactive (o), active & met (*), and active & unmet ( ).
  ---------------------------------------------------------------------------------------------
   Step     Total Energy     Delta E     MAX Force     RMS Force      MAX Disp      RMS Disp   
  ---------------------------------------------------------------------------------------------
    Convergence Criteria    1.00e-06 *    3.00e-04 *             o    1.20e-03 *             o
  ---------------------------------------------------------------------------------------------
      3    -293.41958415   -7.66e-07 *    1.88e-05 *    1.88e-05 o    2.38e-04 *    2.38e-04 o  ~
  ---------------------------------------------------------------------------------------------


  **** Optimization is complete! (in 3 steps) ****

  ==> Optimization Summary <==

  Measures of convergence in internal coordinates in au.
  --------------------------------------------------------------------------------------------------------------- ~
   Step         Total Energy             Delta E       MAX Force       RMS Force        MAX Disp        RMS Disp  ~
  --------------------------------------------------------------------------------------------------------------- ~
      1    -293.419497813879   -293.419497813879      0.00375637      0.00375637      0.04260886      0.04260886  ~
      2    -293.419583384122     -0.000085570242      0.00036987      0.00036987      0.00465362      0.00465362  ~
      3    -293.419584150370     -0.000000766248      0.00001878      0.00001878      0.00023753      0.00023753  ~
  --------------------------------------------------------------------------------------------------------------- ~

	Writing optimization data to binary file.
	Final energy is   -293.4195841503700
	Final (previous) structure:
	Cartesian Geometry (in Angstrom)
	   AG     0.0000000000   0.0000000000   1.2743261082
	   AG     0.0000000000   0.0000000000  -1.2743261082
	Saving final (previous) structure.
	Cleaning optimization helper files.
			--------------------------
			 OPTKING Finished Execution 
			--------------------------

    Final optimized geometry and variables:
    Molecular point group: d2h
    Full point group: D_inf_h

    Geometry (in Angstrom), charge = 0, multiplicity = 1:

    AG           0.000000000000     0.000000000000     1.274326113214
    AG           0.000000000000     0.000000000000    -1.274326113214

	Removing binary optimization data file.
	Cleaning optimization helper files.

Scratch directory: /tmp/
gradient() will perform analytic gradient computation.

*** tstart() called on compute452.bc4.acrc.priv
*** at Tue Nov  2 10:24:59 2021

   => Loading Basis Set <=

    Name: DEF2-TZVPPD
    Role: ORBITAL
    Keyword: BASIS
    atoms 1-2 entry AG         line  2174 (ECP: line  3646) file /mnt/storage/home/zw18965/.conda/envs/p4env/share/psi4/basis/def2-tzvppd.gbs 

    !!!  WARNING: ECP capability is in beta. Please check occupations closely.  !!!

   => MN15-D3(BJ): Empirical Dispersion <=

    Grimme's -D3 (BJ-damping) Dispersion Correction
    Grimme S.; Ehrlich S.; Goerigk L. (2011), J. Comput. Chem., 32: 1456
    Parametrisation from:    L. Goerigk, A. Hansen, C. Bauer, S. Ehrlich, A. Najibi, S. Grimme, Phys. Chem. Chem. Phys. 19, 32184-32215, 2017

        s6 =       1.000000
        s8 =       2.097100
        a1 =       0.786200
        a2 =       7.592300


         ---------------------------------------------------------
                                   SCF
               by Justin Turney, Rob Parrish, Andy Simmonett
                          and Daniel G. A. Smith
                              RKS Reference
                       28 Threads, 114440 MiB Core
         ---------------------------------------------------------

  ==> Geometry <==

    Molecular point group: d2h
    Full point group: D_inf_h

    Geometry (in Angstrom), charge = 0, multiplicity = 1:

       Center              X                  Y                   Z               Mass       
    ------------   -----------------  -----------------  -----------------  -----------------
         AG           0.000000000000     0.000000000000     1.274326113214   106.905091600000
         AG           0.000000000000     0.000000000000    -1.274326113214   106.905091600000

  Running in d2h symmetry.

  Rotational constants: A = ************  B =      0.04855  C =      0.04855 [cm^-1]
  Rotational constants: A = ************  B =   1455.55174  C =   1455.55174 [MHz]
  Nuclear repulsion =   74.954507747653608

  Charge       = 0
  Multiplicity = 1
  Electrons    = 38
  Nalpha       = 19
  Nbeta        = 19

  ==> Algorithm <==

  SCF Algorithm Type is DF.
  DIIS enabled.
  MOM disabled.
  Fractional occupation disabled.
  Guess Type is SAD.
  Energy threshold   = 1.00e-08
  Density threshold  = 1.00e-08
  Integral threshold = 1.00e-12

  ==> Primary Basis <==

  Basis Set: DEF2-TZVPPD
    Blend: DEF2-TZVPPD
    Number of shells: 32
    Number of basis functions: 112
    Number of Cartesian functions: 142
    Spherical Harmonics?: true
    Max angular momentum: 4

  Core potential: DEF2-TZVPPD
    Number of shells: 8
    Number of ECP primitives: 28
    Number of ECP core electrons: 56
    Max angular momentum: 3

  ==> DFT Potential <==

   => Composite Functional: MN15-D3BJ <= 

   MN15 Hybrid Meta-GGA Exchange-Correlation Functional

    H. S. Yu, X. He, S. L. Li, and D. G. Truhlar, Chem. Sci. 7, 5032-5051, 2016


    Deriv               =              1
    GGA                 =           TRUE
    Meta                =           TRUE

    Exchange Hybrid     =           TRUE
    MP2 Hybrid          =          FALSE

   => Exchange Functionals <=

    1.0000   XC_HYB_MGGA_X_MN15

   => Exact (HF) Exchange <=

    0.4400               HF 

   => Correlation Functionals <=

    1.0000   XC_MGGA_C_MN15

   => LibXC Density Thresholds  <==

    XC_MGGA_C_MN15:  1.00E-15 
    XC_HYB_MGGA_X_MN15:  1.00E-15 

   => Molecular Quadrature <=

    Radial Scheme          =       TREUTLER
    Pruning Scheme         =           NONE
    Nuclear Scheme         =       TREUTLER

    BS radius alpha        =              1
    Pruning alpha          =              1
    Radial Points          =             75
    Spherical Points       =            302
    Total Points           =          41812
    Total Blocks           =            414
    Max Points             =            252
    Max Functions          =            110
    Weights Tolerance      =       1.00E-15

   => Loading Basis Set <=

    Name: (DEF2-TZVPPD AUX)
    Role: JKFIT
    Keyword: DF_BASIS_SCF
    atoms 1-2 entry AG         line  4364 file /mnt/storage/home/zw18965/.conda/envs/p4env/share/psi4/basis/def2-universal-jkfit.gbs 

  ==> Integral Setup <==

  DFHelper Memory: AOs need 0.055 GiB; user supplied 83.571 GiB. Using in-core AOs.

  ==> MemDFJK: Density-Fitted J/K Matrices <==

    J tasked:                   Yes
    K tasked:                   Yes
    wK tasked:                   No
    OpenMP threads:              28
    Memory [MiB]:             85576
    Algorithm:                 Core
    Schwarz Cutoff:           1E-12
    Mask sparsity (%):       1.0523
    Fitting Condition:        1E-10

   => Auxiliary Basis Set <=

  Basis Set: (DEF2-TZVPPD AUX)
    Blend: DEF2-UNIVERSAL-JKFIT
    Number of shells: 98
    Number of basis functions: 510
    Number of Cartesian functions: 768
    Spherical Harmonics?: true
    Max angular momentum: 6

  Cached 100.0% of DFT collocation blocks in 0.248 [GiB].

  Minimum eigenvalue in the overlap matrix is 8.7644936971E-03.
  Reciprocal condition number of the overlap matrix is 2.2528591385E-03.
    Using symmetric orthogonalization.

  ==> Pre-Iterations <==

  SCF Guess: Superposition of Atomic Densities via on-the-fly atomic UHF (no occupation information).

   -------------------------
    Irrep   Nso     Nmo    
   -------------------------
     Ag        23      23 
     B1g        7       7 
     B2g       13      13 
     B3g       13      13 
     Au         7       7 
     B1u       23      23 
     B2u       13      13 
     B3u       13      13 
   -------------------------
    Total     112     112
   -------------------------

  ==> Iterations <==

                           Total Energy        Delta E     RMS |[F,P]|

   @DF-RKS iter SAD:  -292.86585240207177   -2.92866e+02   0.00000e+00 
   @DF-RKS iter   1:  -293.38984592693146   -5.23994e-01   7.08039e-03 DIIS
   @DF-RKS iter   2:  -293.38821841379763    1.62751e-03   7.88883e-03 DIIS
   @DF-RKS iter   3:  -293.41945863872417   -3.12402e-02   4.20530e-04 DIIS
   @DF-RKS iter   4:  -293.41955068017404   -9.20414e-05   2.03867e-04 DIIS
   @DF-RKS iter   5:  -293.41957451257429   -2.38324e-05   1.11053e-04 DIIS
   @DF-RKS iter   6:  -293.41958353900469   -9.02643e-06   9.95740e-06 DIIS
   @DF-RKS iter   7:  -293.41958413831418   -5.99309e-07   2.38585e-06 DIIS
   @DF-RKS iter   8:  -293.41958415015819   -1.18440e-08   2.35077e-07 DIIS
   @DF-RKS iter   9:  -293.41958415036123   -2.03045e-10   5.41437e-08 DIIS
   @DF-RKS iter  10:  -293.41958415036947   -8.24230e-12   1.33511e-08 DIIS
   @DF-RKS iter  11:  -293.41958415036981   -3.41061e-13   7.20633e-10 DIIS
  Energy and wave function converged.


  ==> Post-Iterations <==

   Electrons on quadrature grid:
      Ntotal   =   37.9999743891 ; deviation = -2.561e-05 

    Orbital Energies [Eh]
    ---------------------

    Doubly Occupied:                                                      

       1Ag    -3.637057     1B1u   -3.636378     2Ag    -2.291636  
       1B3u   -2.285744     1B2u   -2.285744     1B2g   -2.285053  
       1B3g   -2.285053     2B1u   -2.283899     3Ag    -0.401680  
       2B3u   -0.385412     2B2u   -0.385412     4Ag    -0.365286  
       1B1g   -0.365271     3B1u   -0.357192     1Au    -0.357177  
       2B2g   -0.344764     2B3g   -0.344764     4B1u   -0.337624  
       5Ag    -0.237376  

    Virtual:                                                              

       5B1u   -0.072654     3B3u   -0.001954     3B2u   -0.001954  
       6Ag     0.032663     3B2g    0.075684     3B3g    0.075684  
       6B1u    0.136411     7Ag     0.143649     7B1u    0.199183  
       8Ag     0.225709     4B3u    0.231328     4B2u    0.231328  
       4B2g    0.283644     4B3g    0.283644     2B1g    0.411803  
       9Ag     0.411810     8B1u    0.411935     5B3u    0.454552  
       5B2u    0.454552     9B1u    0.507195     2Au     0.507197  
      10Ag     0.622409     5B2g    0.628157     5B3g    0.628157  
      10B1u    0.754982    11Ag     1.416265     6B3u    1.541756  
       6B2u    1.541756    12Ag     1.586459     3B1g    1.586508  
       7B2u    1.602384     7B3u    1.602384     6B3g    1.604422  
       6B2g    1.604422    11B1u    1.614408     3Au     1.614457  
       7B2g    1.638221     7B3g    1.638221     8B3u    1.646093  
       8B2u    1.646093    12B1u    1.665166    13Ag     1.734854  
       8B2g    1.742808     8B3g    1.742808    13B1u    1.754959  
      14Ag     1.931671    15Ag     2.041330     4B1g    2.041330  
       9B3u    2.060665     9B2u    2.060665    14B1u    2.080312  
       4Au     2.080314    16Ag     2.134141     9B2g    2.140005  
       9B3g    2.140005    15B1u    2.288475    16B1u    2.320091  
      10B3u    4.581816    10B2u    4.581816    17Ag     4.587133  
      18Ag     4.618532     5B1g    4.618603    11B2u    4.629449  
      11B3u    4.629449    10B3g    4.631100    10B2g    4.631100  
      17B1u    4.641979     5Au     4.642050    11B2g    4.719693  
      11B3g    4.719693    18B1u    4.907588    12B3u    5.432672  
      12B2u    5.432672    19Ag     5.434181    20Ag     5.434673  
       6B1g    5.434766    19B1u    5.435176     6Au     5.435268  
      12B2g    5.436772    12B3g    5.436772    13B3u    5.436929  
      13B2u    5.436929    13B2g    5.436975    13B3g    5.436975  
      21Ag     5.438924    20B1u    5.438924     7B1g    5.439118  
       7Au     5.439118    21B1u    5.447615    22Ag    32.792100  
      22B1u   33.035268    23Ag   110.562540    23B1u  110.640026  

    Final Occupation by Irrep:
             Ag   B1g   B2g   B3g    Au   B1u   B2u   B3u 
    DOCC [     5,    1,    2,    2,    1,    4,    2,    2 ]

  @DF-RKS Final Energy:  -293.41958415036981

   => Energetics <=

    Nuclear Repulsion Energy =             74.9545077476536079
    One-Electron Energy =                -671.4118654392332246
    Two-Electron Energy =                 319.0117198706143427
    DFT Exchange-Correlation Energy =     -15.9739028194045130
    Empirical Dispersion Energy =          -0.0000435100000000
    VV10 Nonlocal Energy =                  0.0000000000000000
    Total Energy =                       -293.4195841503698148

Computation Completed


Properties will be evaluated at   0.000000,   0.000000,   0.000000 [a0]

Properties computed using the SCF density matrix

  Nuclear Dipole Moment: [e a0]
     X:     0.0000      Y:     0.0000      Z:    -0.0000

  Electronic Dipole Moment: [e a0]
     X:     0.0000      Y:     0.0000      Z:     0.0000

  Dipole Moment: [e a0]
     X:     0.0000      Y:     0.0000      Z:    -0.0000     Total:     0.0000

  Dipole Moment: [D]
     X:     0.0000      Y:     0.0000      Z:    -0.0000     Total:     0.0000


*** tstop() called on compute452.bc4.acrc.priv at Tue Nov  2 10:25:06 2021
Module time:
	user time   =      58.67 seconds =       0.98 minutes
	system time =       1.50 seconds =       0.03 minutes
	total time  =          7 seconds =       0.12 minutes
Total time:
	user time   =    1448.41 seconds =      24.14 minutes
	system time =      28.05 seconds =       0.47 minutes
	total time  =        297 seconds =       4.95 minutes

*** tstart() called on compute452.bc4.acrc.priv
*** at Tue Nov  2 10:25:06 2021


         ------------------------------------------------------------
                                   SCF GRAD                          
                          Rob Parrish, Justin Turney,                
                       Andy Simmonett, and Alex Sokolov              
         ------------------------------------------------------------

  ==> Geometry <==

    Molecular point group: d2h
    Full point group: D_inf_h

    Geometry (in Angstrom), charge = 0, multiplicity = 1:

       Center              X                  Y                   Z               Mass       
    ------------   -----------------  -----------------  -----------------  -----------------
         AG           0.000000000000     0.000000000000     1.274326113214   106.905091600000
         AG           0.000000000000     0.000000000000    -1.274326113214   106.905091600000

  Nuclear repulsion =   74.954507747653608

  ==> Basis Set <==

  Basis Set: DEF2-TZVPPD
    Blend: DEF2-TZVPPD
    Number of shells: 32
    Number of basis functions: 112
    Number of Cartesian functions: 142
    Spherical Harmonics?: true
    Max angular momentum: 4

  Core potential: DEF2-TZVPPD
    Number of shells: 8
    Number of ECP primitives: 28
    Number of ECP core electrons: 56
    Max angular momentum: 3

  ==> DFJKGrad: Density-Fitted SCF Gradients <==

    Gradient:                    1
    J tasked:                  Yes
    K tasked:                  Yes
    wK tasked:                  No
    OpenMP threads:             28
    Integrals threads:          28
    Memory [MiB]:            85830
    Schwarz Cutoff:          1E-12
    Fitting Condition:       1E-10

   => Auxiliary Basis Set <=

  Basis Set: (DEF2-TZVPPD AUX)
    Blend: DEF2-UNIVERSAL-JKFIT
    Number of shells: 98
    Number of basis functions: 510
    Number of Cartesian functions: 768
    Spherical Harmonics?: true
    Max angular momentum: 6

  ==> DFT Potential <==

   => Composite Functional: MN15-D3BJ <= 

   MN15 Hybrid Meta-GGA Exchange-Correlation Functional

    H. S. Yu, X. He, S. L. Li, and D. G. Truhlar, Chem. Sci. 7, 5032-5051, 2016


    Deriv               =              1
    GGA                 =           TRUE
    Meta                =           TRUE

    Exchange Hybrid     =           TRUE
    MP2 Hybrid          =          FALSE

   => Exchange Functionals <=

    1.0000   XC_HYB_MGGA_X_MN15

   => Exact (HF) Exchange <=

    0.4400               HF 

   => Correlation Functionals <=

    1.0000   XC_MGGA_C_MN15

   => LibXC Density Thresholds  <==

    XC_MGGA_C_MN15:  1.00E-15 
    XC_HYB_MGGA_X_MN15:  1.00E-15 

   => Molecular Quadrature <=

    Radial Scheme          =       TREUTLER
    Pruning Scheme         =           NONE
    Nuclear Scheme         =       TREUTLER

    BS radius alpha        =              1
    Pruning alpha          =              1
    Radial Points          =             75
    Spherical Points       =            302
    Total Points           =          41812
    Total Blocks           =            414
    Max Points             =            252
    Max Functions          =            110
    Weights Tolerance      =       1.00E-15


  -Total Gradient:
     Atom            X                  Y                   Z
    ------   -----------------  -----------------  -----------------
       1       -0.000000000000     0.000000000000    -0.149785222716
       2       -0.000000000000     0.000000000000     0.149785222716


*** tstop() called on compute452.bc4.acrc.priv at Tue Nov  2 10:25:15 2021
Module time:
	user time   =      41.07 seconds =       0.68 minutes
	system time =       3.47 seconds =       0.06 minutes
	total time  =          9 seconds =       0.15 minutes
Total time:
	user time   =    1492.82 seconds =      24.88 minutes
	system time =      31.65 seconds =       0.53 minutes
	total time  =        306 seconds =       5.10 minutes


  ==> Adding ECP gradient terms (computed numerically) <==

  -ECP Gradient:
     Atom            X                  Y                   Z
    ------   -----------------  -----------------  -----------------
       1       -0.000000000000     0.000000000000     0.149766442519
       2       -0.000000000000     0.000000000000    -0.149766442519


  -Total Gradient:
     Atom            X                  Y                   Z
    ------   -----------------  -----------------  -----------------
       1       -0.000000000000     0.000000000000    -0.000018780197
       2       -0.000000000000     0.000000000000     0.000018780197


  Based on options and gradient (rms=1.08E-05), recommend projecting translations and projecting rotations.
hessian() will perform frequency computation by finite difference of analytic gradients.

         ----------------------------------------------------------
                                   FINDIF
                     R. A. King and Jonathon Misiewicz
         ---------------------------------------------------------

  Using finite-differences of gradients to determine vibrational frequencies and 
  normal modes. Resulting frequencies are only valid at stationary points.
    Generating geometries for use with 3-point formula.
    Displacement size will be 5.00e-03.
    Number of atoms is 2.
    Number of irreps is 8.
    Number of SALCs is 1.
    Translations projected? 1. Rotations projected? 1.
    Index of SALCs per irrep:
     1 :  0 
     2 : 
     3 : 
     4 : 
     5 : 
     6 : 
     7 : 
     8 : 
    Number of SALCs per irrep:
     Irrep 1: 1
     Irrep 2: 0
     Irrep 3: 0
     Irrep 4: 0
     Irrep 5: 0
     Irrep 6: 0
     Irrep 7: 0
     Irrep 8: 0
    Number of geometries (including reference) is 3.
    Number of displacements per irrep:
      Irrep 1: 2
      Irrep 2: 0
      Irrep 3: 0
      Irrep 4: 0
      Irrep 5: 0
      Irrep 6: 0
      Irrep 7: 0
      Irrep 8: 0

  //>>>>>>>>>>>>>>>>>>>>>>>>>>>>>>>>>>>//
  //    Loading displacement 1 of 3    //
  //<<<<<<<<<<<<<<<<<<<<<<<<<<<<<<<<<<<//

Scratch directory: /tmp/
gradient() will perform analytic gradient computation.

*** tstart() called on compute452.bc4.acrc.priv
*** at Tue Nov  2 10:26:37 2021

   => Loading Basis Set <=

    Name: DEF2-TZVPPD
    Role: ORBITAL
    Keyword: BASIS
    atoms 1-2 entry AG         line  2174 (ECP: line  3646) file /mnt/storage/home/zw18965/.conda/envs/p4env/share/psi4/basis/def2-tzvppd.gbs 

    !!!  WARNING: ECP capability is in beta. Please check occupations closely.  !!!

   => MN15-D3(BJ): Empirical Dispersion <=

    Grimme's -D3 (BJ-damping) Dispersion Correction
    Grimme S.; Ehrlich S.; Goerigk L. (2011), J. Comput. Chem., 32: 1456
    Parametrisation from:    L. Goerigk, A. Hansen, C. Bauer, S. Ehrlich, A. Najibi, S. Grimme, Phys. Chem. Chem. Phys. 19, 32184-32215, 2017

        s6 =       1.000000
        s8 =       2.097100
        a1 =       0.786200
        a2 =       7.592300


[...]

  ==> DFT Potential <==

   => Composite Functional: MN15-D3BJ <= 

   MN15 Hybrid Meta-GGA Exchange-Correlation Functional

    H. S. Yu, X. He, S. L. Li, and D. G. Truhlar, Chem. Sci. 7, 5032-5051, 2016


    Deriv               =              1
    GGA                 =           TRUE
    Meta                =           TRUE

    Exchange Hybrid     =           TRUE
    MP2 Hybrid          =          FALSE

   => Exchange Functionals <=

    1.0000   XC_HYB_MGGA_X_MN15

   => Exact (HF) Exchange <=

    0.4400               HF 

   => Correlation Functionals <=

    1.0000   XC_MGGA_C_MN15

   => LibXC Density Thresholds  <==

    XC_MGGA_C_MN15:  1.00E-15 
    XC_HYB_MGGA_X_MN15:  1.00E-15 

   => Molecular Quadrature <=

    Radial Scheme          =       TREUTLER
    Pruning Scheme         =           NONE
    Nuclear Scheme         =       TREUTLER

    BS radius alpha        =              1
    Pruning alpha          =              1
    Radial Points          =             75
    Spherical Points       =            302
    Total Points           =          41812
    Total Blocks           =            414
    Max Points             =            252
    Max Functions          =            110
    Weights Tolerance      =       1.00E-15

   => Loading Basis Set <=

    Name: (DEF2-TZVPPD AUX)
    Role: JKFIT
    Keyword: DF_BASIS_SCF
    atoms 1-2 entry AG         line  4364 file /mnt/storage/home/zw18965/.conda/envs/p4env/share/psi4/basis/def2-universal-jkfit.gbs 

  ==> Integral Setup <==

  DFHelper Memory: AOs need 0.055 GiB; user supplied 83.571 GiB. Using in-core AOs.

  ==> MemDFJK: Density-Fitted J/K Matrices <==

    J tasked:                   Yes
    K tasked:                   Yes
    wK tasked:                   No
    OpenMP threads:              28
    Memory [MiB]:             85576
    Algorithm:                 Core
    Schwarz Cutoff:           1E-12
    Mask sparsity (%):       1.0523
    Fitting Condition:        1E-10

   => Auxiliary Basis Set <=

  Basis Set: (DEF2-TZVPPD AUX)
    Blend: DEF2-UNIVERSAL-JKFIT
    Number of shells: 98
    Number of basis functions: 510
    Number of Cartesian functions: 768
    Spherical Harmonics?: true
    Max angular momentum: 6

  Cached 100.0% of DFT collocation blocks in 0.248 [GiB].

  Minimum eigenvalue in the overlap matrix is 8.7694858799E-03.
  Reciprocal condition number of the overlap matrix is 2.2542653586E-03.
    Using symmetric orthogonalization.

  ==> Pre-Iterations <==

  SCF Guess: Superposition of Atomic Densities via on-the-fly atomic UHF (no occupation information).

   -------------------------
    Irrep   Nso     Nmo    
   -------------------------
     Ag        23      23 
     B1g        7       7 
     B2g       13      13 
     B3g       13      13 
     Au         7       7 
     B1u       23      23 
     B2u       13      13 
     B3u       13      13 
   -------------------------
    Total     112     112
   -------------------------

  ==> Iterations <==

                           Total Energy        Delta E     RMS |[F,P]|

   @DF-RKS iter SAD:  -292.87375536260578   -2.92874e+02   0.00000e+00 
   @DF-RKS iter   1:  -293.39013421107290   -5.16379e-01   7.04258e-03 DIIS
   @DF-RKS iter   2:  -293.38846171250339    1.67250e-03   7.86594e-03 DIIS
   @DF-RKS iter   3:  -293.41945858879359   -3.09969e-02   4.25852e-04 DIIS
   @DF-RKS iter   4:  -293.41954892260873   -9.03338e-05   2.17606e-04 DIIS
   @DF-RKS iter   5:  -293.41957504311227   -2.61205e-05   1.09629e-04 DIIS
   @DF-RKS iter   6:  -293.41958355424799   -8.51114e-06   9.59208e-06 DIIS
   @DF-RKS iter   7:  -293.41958411378346   -5.59535e-07   2.31634e-06 DIIS
   @DF-RKS iter   8:  -293.41958412529743   -1.15140e-08   2.24886e-07 DIIS
   @DF-RKS iter   9:  -293.41958412547655   -1.79114e-10   4.58380e-08 DIIS
   @DF-RKS iter  10:  -293.41958412548257   -6.02540e-12   3.29960e-09 DIIS
  Energy and wave function converged.


  ==> Post-Iterations <==

   Electrons on quadrature grid:
      Ntotal   =   37.9999744034 ; deviation = -2.560e-05 

    Orbital Energies [Eh]
    ---------------------

    Doubly Occupied:                                                      

       1Ag    -3.637054     1B1u   -3.636376     2Ag    -2.291625  
       1B3u   -2.285742     1B2u   -2.285742     1B2g   -2.285051  
       1B3g   -2.285051     2B1u   -2.283899     3Ag    -0.401651  
       2B3u   -0.385392     2B2u   -0.385392     4Ag    -0.365282  
       1B1g   -0.365266     3B1u   -0.357195     1Au    -0.357179  
       2B2g   -0.344775     2B3g   -0.344775     4B1u   -0.337638  
       5Ag    -0.237366  

    Virtual:                                                              

       5B1u   -0.072665     3B3u   -0.001952     3B2u   -0.001952  
       6Ag     0.032653     3B2g    0.075673     3B3g    0.075673  
       6B1u    0.136398     7Ag     0.143647     7B1u    0.199184  
       8Ag     0.225703     4B3u    0.231334     4B2u    0.231334  
       4B2g    0.283633     4B3g    0.283633     2B1g    0.411811  
       9Ag     0.411818     8B1u    0.411872     5B3u    0.454517  
       5B2u    0.454517     9B1u    0.507181     2Au     0.507184  
      10Ag     0.622383     5B2g    0.628141     5B3g    0.628141  
      10B1u    0.754946    11Ag     1.416492     6B3u    1.541845  
       6B2u    1.541845    12Ag     1.586483     3B1g    1.586532  
       7B3u    1.602387     7B2u    1.602387     6B3g    1.604420  
       6B2g    1.604420    11B1u    1.614386     3Au     1.614435  
       7B2g    1.638168     7B3g    1.638168     8B3u    1.646092  
       8B2u    1.646092    12B1u    1.665161    13Ag     1.734861  
       8B2g    1.742747     8B3g    1.742747    13B1u    1.754829  
      14Ag     1.931569    15Ag     2.041333     4B1g    2.041333  
       9B3u    2.060720     9B2u    2.060720    14B1u    2.080307  
       4Au     2.080309    16Ag     2.134224     9B2g    2.139960  
       9B3g    2.139960    15B1u    2.288364    16B1u    2.319913  
      10B3u    4.581882    10B2u    4.581882    17Ag     4.587119  
      18Ag     4.618555     5B1g    4.618625    11B3u    4.629453  
      11B2u    4.629453    10B2g    4.631100    10B3g    4.631100  
      17B1u    4.641960     5Au     4.642031    11B2g    4.719593  
      11B3g    4.719593    18B1u    4.907395    12B3u    5.432679  
      12B2u    5.432679    19Ag     5.434184    20Ag     5.434678  
       6B1g    5.434771    19B1u    5.435179     6Au     5.435271  
      12B2g    5.436770    12B3g    5.436770    13B3u    5.436931  
      13B2u    5.436931    13B2g    5.436976    13B3g    5.436976  
      21Ag     5.438924    20B1u    5.438924     7B1g    5.439119  
       7Au     5.439119    21B1u    5.447582    22Ag    32.792042  
      22B1u   33.035204    23Ag   110.562524    23B1u  110.640007  

    Final Occupation by Irrep:
             Ag   B1g   B2g   B3g    Au   B1u   B2u   B3u 
    DOCC [     5,    1,    2,    2,    1,    4,    2,    2 ]

  @DF-RKS Final Energy:  -293.41958412548257

   => Energetics <=

    Nuclear Repulsion Energy =             74.9438660123035447
    One-Electron Energy =                -671.3907512933369617
    Two-Electron Energy =                 319.0012198254281088
    DFT Exchange-Correlation Energy =     -15.9738751598772133
    Empirical Dispersion Energy =          -0.0000435100000000
    VV10 Nonlocal Energy =                  0.0000000000000000
    Total Energy =                       -293.4195841254825723

Computation Completed


Properties will be evaluated at   0.000000,   0.000000,   0.000000 [a0]

Properties computed using the SCF density matrix

  Nuclear Dipole Moment: [e a0]
     X:     0.0000      Y:     0.0000      Z:    -0.0000

  Electronic Dipole Moment: [e a0]
     X:     0.0000      Y:     0.0000      Z:     0.0000

  Dipole Moment: [e a0]
     X:     0.0000      Y:     0.0000      Z:    -0.0000     Total:     0.0000

  Dipole Moment: [D]
     X:     0.0000      Y:     0.0000      Z:    -0.0000     Total:     0.0000


*** tstop() called on compute452.bc4.acrc.priv at Tue Nov  2 10:29:59 2021
Module time:
	user time   =      58.93 seconds =       0.98 minutes
	system time =       1.81 seconds =       0.03 minutes
	total time  =          7 seconds =       0.12 minutes
Total time:
	user time   =    2877.04 seconds =      47.95 minutes
	system time =      54.21 seconds =       0.90 minutes
	total time  =        590 seconds =       9.83 minutes

*** tstart() called on compute452.bc4.acrc.priv
*** at Tue Nov  2 10:29:59 2021


         ------------------------------------------------------------
                                   SCF GRAD                          
                          Rob Parrish, Justin Turney,                
                       Andy Simmonett, and Alex Sokolov              
         ------------------------------------------------------------

  ==> Geometry <==

    Molecular point group: d2h
    Full point group: D_inf_h

    Geometry (in Angstrom), charge = 0, multiplicity = 1:

       Center              X                  Y                   Z               Mass       
    ------------   -----------------  -----------------  -----------------  -----------------
         AG           0.000000000000     0.000000000000     1.274507062529   106.905091600000
         AG           0.000000000000     0.000000000000    -1.274507062529   106.905091600000

  Nuclear repulsion =   74.943866012303545

  ==> Basis Set <==

  Basis Set: DEF2-TZVPPD
    Blend: DEF2-TZVPPD
    Number of shells: 32
    Number of basis functions: 112
    Number of Cartesian functions: 142
    Spherical Harmonics?: true
    Max angular momentum: 4

  Core potential: DEF2-TZVPPD
    Number of shells: 8
    Number of ECP primitives: 28
    Number of ECP core electrons: 56
    Max angular momentum: 3

  ==> DFJKGrad: Density-Fitted SCF Gradients <==

    Gradient:                    1
    J tasked:                  Yes
    K tasked:                  Yes
    wK tasked:                  No
    OpenMP threads:             28
    Integrals threads:          28
    Memory [MiB]:            85830
    Schwarz Cutoff:          1E-12
    Fitting Condition:       1E-10

   => Auxiliary Basis Set <=

  Basis Set: (DEF2-TZVPPD AUX)
    Blend: DEF2-UNIVERSAL-JKFIT
    Number of shells: 98
    Number of basis functions: 510
    Number of Cartesian functions: 768
    Spherical Harmonics?: true
    Max angular momentum: 6

  ==> DFT Potential <==

   => Composite Functional: MN15-D3BJ <= 

   MN15 Hybrid Meta-GGA Exchange-Correlation Functional

    H. S. Yu, X. He, S. L. Li, and D. G. Truhlar, Chem. Sci. 7, 5032-5051, 2016


    Deriv               =              1
    GGA                 =           TRUE
    Meta                =           TRUE

    Exchange Hybrid     =           TRUE
    MP2 Hybrid          =          FALSE

   => Exchange Functionals <=

    1.0000   XC_HYB_MGGA_X_MN15

   => Exact (HF) Exchange <=

    0.4400               HF 

   => Correlation Functionals <=

    1.0000   XC_MGGA_C_MN15

   => LibXC Density Thresholds  <==

    XC_MGGA_C_MN15:  1.00E-15 
    XC_HYB_MGGA_X_MN15:  1.00E-15 

   => Molecular Quadrature <=

    Radial Scheme          =       TREUTLER
    Pruning Scheme         =           NONE
    Nuclear Scheme         =       TREUTLER

    BS radius alpha        =              1
    Pruning alpha          =              1
    Radial Points          =             75
    Spherical Points       =            302
    Total Points           =          41812
    Total Blocks           =            414
    Max Points             =            252
    Max Functions          =            110
    Weights Tolerance      =       1.00E-15


  -Total Gradient:
     Atom            X                  Y                   Z
    ------   -----------------  -----------------  -----------------
       1       -0.000000000000     0.000000000000    -0.149629728817
       2       -0.000000000000     0.000000000000     0.149629728817


*** tstop() called on compute452.bc4.acrc.priv at Tue Nov  2 10:30:08 2021
Module time:
	user time   =      37.58 seconds =       0.63 minutes
	system time =       3.17 seconds =       0.05 minutes
	total time  =          9 seconds =       0.15 minutes
Total time:
	user time   =    2917.99 seconds =      48.63 minutes
	system time =      57.53 seconds =       0.96 minutes
	total time  =        599 seconds =       9.98 minutes


  ==> Adding ECP gradient terms (computed numerically) <==

  -ECP Gradient:
     Atom            X                  Y                   Z
    ------   -----------------  -----------------  -----------------
       1        0.000000000000     0.000000000000     0.149662294673
       2        0.000000000000     0.000000000000    -0.149662294673


  -Total Gradient:
     Atom            X                  Y                   Z
    ------   -----------------  -----------------  -----------------
       1       -0.000000000000     0.000000000000     0.000032565856
       2       -0.000000000000     0.000000000000    -0.000032565856


         ----------------------------------------------------------
                                   FINDIF
                     R. A. King and Jonathon Misiewicz
         ---------------------------------------------------------

  Computing second-derivative from gradients using projected, 
  symmetry-adapted, cartesian coordinates.

  3 gradients passed in, including the reference geometry.
  Generating complete list of displacements from unique ones.


-------------------------------------------------------------


  ==> Harmonic Vibrational Analysis <==

  non-mass-weighted Hessian:       Symmetric? True   Hermitian? True   Lin Dep Dim?  5 (0)
  projection of translations (True) and rotations (True) removed 5 degrees of freedom (5)
  total projector:                 Symmetric? True   Hermitian? True   Lin Dep Dim?  5 (5)
  mass-weighted Hessian:           Symmetric? True   Hermitian? True   Lin Dep Dim?  5 (0)
  pre-proj  low-frequency mode:    0.0000  [cm^-1]
  pre-proj  low-frequency mode:    0.0000  [cm^-1]
  pre-proj  low-frequency mode:    0.0000  [cm^-1]
  pre-proj  low-frequency mode:    0.0000  [cm^-1]
  pre-proj  low-frequency mode:    0.0000  [cm^-1]
  pre-proj  all modes:['0.0000' '0.0000' '0.0000' '0.0000' '0.0000' '192.6855']
  projected mass-weighted Hessian: Symmetric? True   Hermitian? True   Lin Dep Dim?  5 (5)
  post-proj low-frequency mode:    0.0000  [cm^-1] (TR)
  post-proj low-frequency mode:    0.0000  [cm^-1] (TR)
  post-proj low-frequency mode:    0.0000  [cm^-1] (TR)
  post-proj low-frequency mode:    0.0000  [cm^-1] (TR)
  post-proj low-frequency mode:    0.0000  [cm^-1] (TR)
  post-proj  all modes:['0.0000' '0.0000' '0.0000' '0.0000' '0.0000' '192.6855']

  Vibration                       6           
  Freq [cm^-1]                 192.6855       
  Irrep                           Ag          
  Reduced mass [u]             106.9051       
  Force const [mDyne/A]         2.3385        
  Turning point v=0 [a0]        0.0765        
  RMS dev v=0 [a0 u^1/2]        0.5589        
  Char temp [K]                277.2315       
  ----------------------------------------------------------------------------------
      1   AG               0.00  0.00  0.71   
      2   AG               0.00  0.00 -0.71   

  ==> Thermochemistry Components <==

  Entropy, S
    Electronic S            0.000 [cal/(mol K)]        0.000 [J/(mol K)]       0.00000000 [mEh/K] (multiplicity = 1)
    Translational S        41.983 [cal/(mol K)]      175.658 [J/(mol K)]       0.06690442 [mEh/K] (mol. weight = 213.8102 [u], P = 101325.00 [Pa])
    Rotational S           17.221 [cal/(mol K)]       72.051 [J/(mol K)]       0.02744287 [mEh/K] (symmetry no. = 2)
    Vibrational S           2.202 [cal/(mol K)]        9.212 [J/(mol K)]       0.00350885 [mEh/K]
  Total S                  61.406 [cal/(mol K)]      256.921 [J/(mol K)]       0.09785615 [mEh/K]
  Correction S              0.000 [cal/(mol K)]        0.000 [J/(mol K)]       0.00000000 [mEh/K]

  Constant volume heat capacity, Cv
    Electronic Cv           0.000 [cal/(mol K)]        0.000 [J/(mol K)]       0.00000000 [mEh/K]
    Translational Cv        2.981 [cal/(mol K)]       12.472 [J/(mol K)]       0.00475022 [mEh/K]
    Rotational Cv           1.987 [cal/(mol K)]        8.314 [J/(mol K)]       0.00316681 [mEh/K]
    Vibrational Cv          1.850 [cal/(mol K)]        7.740 [J/(mol K)]       0.00294818 [mEh/K]
  Total Cv                  6.818 [cal/(mol K)]       28.527 [J/(mol K)]       0.01086520 [mEh/K]
  Correction Cv             0.000 [cal/(mol K)]        0.000 [J/(mol K)]       0.00000000 [mEh/K]

  Constant pressure heat capacity, Cp
    Electronic Cp           0.000 [cal/(mol K)]        0.000 [J/(mol K)]       0.00000000 [mEh/K]
    Translational Cp        4.968 [cal/(mol K)]       20.786 [J/(mol K)]       0.00791703 [mEh/K]
    Rotational Cp           1.987 [cal/(mol K)]        8.314 [J/(mol K)]       0.00316681 [mEh/K]
    Vibrational Cp          1.850 [cal/(mol K)]        7.740 [J/(mol K)]       0.00294818 [mEh/K]
  Total Cp                  8.805 [cal/(mol K)]       36.841 [J/(mol K)]       0.01403201 [mEh/K]
  Correction Cp             0.000 [cal/(mol K)]        0.000 [J/(mol K)]       0.00000000 [mEh/K]

  ==> Thermochemistry Energy Analysis <==

  Raw electronic energy, E0
  Total E0, Electronic energy at well bottom at 0 [K]                 -293.41958415 [Eh]

  Zero-point energy, ZPE_vib = Sum_i nu_i / 2
    Electronic ZPE          0.000 [kcal/mol]        0.000 [kJ/mol]       0.00000000 [Eh]
    Translational ZPE       0.000 [kcal/mol]        0.000 [kJ/mol]       0.00000000 [Eh]
    Rotational ZPE          0.000 [kcal/mol]        0.000 [kJ/mol]       0.00000000 [Eh]
    Vibrational ZPE         0.275 [kcal/mol]        1.153 [kJ/mol]       0.00043897 [Eh]          96.343 [cm^-1]
  Correction ZPE            0.275 [kcal/mol]        1.153 [kJ/mol]       0.00043897 [Eh]          96.343 [cm^-1]
  Total ZPE, Electronic energy at 0 [K]                               -293.41914518 [Eh]

  Thermal Energy, E (includes ZPE)
    Electronic E            0.000 [kcal/mol]        0.000 [kJ/mol]       0.00000000 [Eh]
    Translational E         0.889 [kcal/mol]        3.718 [kJ/mol]       0.00141628 [Eh]
    Rotational E            0.592 [kcal/mol]        2.479 [kJ/mol]       0.00094418 [Eh]
    Vibrational E           0.635 [kcal/mol]        2.655 [kJ/mol]       0.00101125 [Eh]
  Correction E              2.116 [kcal/mol]        8.852 [kJ/mol]       0.00337171 [Eh]
  Total E, Electronic energy at  298.15 [K]                           -293.41621244 [Eh]

  Enthalpy, H_trans = E_trans + k_B * T
    Electronic H            0.000 [kcal/mol]        0.000 [kJ/mol]       0.00000000 [Eh]
    Translational H         1.481 [kcal/mol]        6.197 [kJ/mol]       0.00236046 [Eh]
    Rotational H            0.592 [kcal/mol]        2.479 [kJ/mol]       0.00094418 [Eh]
    Vibrational H           0.635 [kcal/mol]        2.655 [kJ/mol]       0.00101125 [Eh]
  Correction H              2.708 [kcal/mol]       11.331 [kJ/mol]       0.00431590 [Eh]
  Total H, Enthalpy at  298.15 [K]                                    -293.41526825 [Eh]

  Gibbs free energy, G = H - T * S
    Electronic G            0.000 [kcal/mol]        0.000 [kJ/mol]       0.00000000 [Eh]
    Translational G       -11.036 [kcal/mol]      -46.175 [kJ/mol]      -0.01758709 [Eh]
    Rotational G           -4.542 [kcal/mol]      -19.003 [kJ/mol]      -0.00723791 [Eh]
    Vibrational G          -0.022 [kcal/mol]       -0.092 [kJ/mol]      -0.00003491 [Eh]
  Correction G            -15.600 [kcal/mol]      -65.270 [kJ/mol]      -0.02485991 [Eh]
  Total G, Free enthalpy at  298.15 [K]                               -293.44444406 [Eh]

    Psi4 stopped on: Tuesday, 02 November 2021 10:31AM
    Psi4 wall time for execution: 0:11:21.26

*** Psi4 exiting successfully. Buy a developer a beer!
