Optimizer: Optimization complete!
 3 displacements needed.
 1 2 3
Warning: used thermodynamics relations inappropriate for low-frequency modes: ['191.6783']
At level 1: Red. Int., RFO, no backsteps, dynamic trust
At level 1: Red. Int., RFO, no backsteps, dynamic trust
At level 1: Red. Int., RFO, no backsteps, dynamic trust
DePrince III, E. G. Hohenstein, U. Bozkaya, A. Yu. Sokolov,
    R. Di Remigio, R. M. Richard, J. F. Gonthier, A. M. James,
    H. R. McAlexander, A. Kumar, M. Saitow, X. Wang, B. P. Pritchard,
    P. Verma, H. F. Schaefer III, K. Patkowski, R. A. King, E. F. Valeev,
    F. A. Evangelista, J. M. Turney, T. D. Crawford, and C. D. Sherrill,
    J. Chem. Theory Comput. 13(7) pp 3185--3197 (2017).
    (doi: 10.1021/acs.jctc.7b00174)


                         Additional Contributions by
    P. Kraus, H. Kruse, M. H. Lechner, M. C. Schieber, R. A. Shaw,
    A. Alenaizan, R. Galvelis, Z. L. Glick, S. Lehtola, and J. P. Misiewicz

    -----------------------------------------------------------------------


    Psi4 started on: Friday, 29 October 2021 08:37AM

    Process ID: 185691
    Host:       bp1-compute00145.data.bp.acrc.priv
    PSIDATADIR: /work/zw18965/.conda/envs/p4env/share/psi4
    Memory:     500.0 MiB
    Threads:    24
    
  ==> Input File <==

--------------------------------------------------------------------------
memory 144 GB

molecule {
0 1
Ag       0.000000    0.000000    1.261821 
Ag       0.000000    0.000000   -1.261821 
 }

set dynamic_level 1
set basis Def2-TZVPPD

optimize("MN15-D3BJ")
frequencies("MN15-D3BJ")
--------------------------------------------------------------------------

  Memory set to 134.110 GiB by Python driver.
gradient() will perform analytic gradient computation.

*** tstart() called on bp1-compute00145.data.bp.acrc.priv
*** at Fri Oct 29 08:37:20 2021

   => Loading Basis Set <=

    Name: DEF2-TZVPPD
    Role: ORBITAL
    Keyword: BASIS
    atoms 1-2 entry AG         line  2174 (ECP: line  3646) file /work/zw18965/.conda/envs/p4env/share/psi4/basis/def2-tzvppd.gbs 

    !!!  WARNING: ECP capability is in beta. Please check occupations closely.  !!!


         ---------------------------------------------------------
                                   SCF
               by Justin Turney, Rob Parrish, Andy Simmonett
                          and Daniel G. A. Smith
                              RKS Reference
                       24 Threads, 137329 MiB Core
         ---------------------------------------------------------

  ==> Geometry <==

    Molecular point group: d2h
    Full point group: D_inf_h

    Geometry (in Angstrom), charge = 0, multiplicity = 1:

       Center              X                  Y                   Z               Mass       
    ------------   -----------------  -----------------  -----------------  -----------------
         AG           0.000000000000     0.000000000000     1.261821000000   106.905091600000
         AG           0.000000000000     0.000000000000    -1.261821000000   106.905091600000

  Running in d2h symmetry.

  Rotational constants: A = ************  B =      0.04952  C =      0.04952 [cm^-1]
  Rotational constants: A = ************  B =   1484.54481  C =   1484.54481 [MHz]
  Nuclear repulsion =   75.697334666275978

  Charge       = 0
  Multiplicity = 1
  Electrons    = 38
  Nalpha       = 19
  Nbeta        = 19

  ==> Algorithm <==

  SCF Algorithm Type is DF.
  DIIS enabled.
  MOM disabled.
  Fractional occupation disabled.
  Guess Type is SAD.
  Energy threshold   = 1.00e-08
  Density threshold  = 1.00e-08
  Integral threshold = 0.00e+00

  ==> Primary Basis <==

  Basis Set: DEF2-TZVPPD
    Blend: DEF2-TZVPPD
    Number of shells: 32
    Number of basis function: 112
    Number of Cartesian functions: 142
    Spherical Harmonics?: true
    Max angular momentum: 4

  Core potential: DEF2-TZVPPD
    Number of shells: 8
    Number of ECP primitives: 28
    Number of ECP core electrons: 56
    Max angular momentum: 3

  ==> DFT Potential <==

   => Composite Functional: MN15-D3BJ <= 

   MN15 Hybrid Meta-GGA Exchange-Correlation Functional

    H. S. Yu, X. He, S. L. Li, and D. G. Truhlar, Chem. Sci. 7, 5032-5051, 2016


    Deriv               =              1
    GGA                 =           TRUE
    Meta                =           TRUE

    Exchange Hybrid     =           TRUE
    MP2 Hybrid          =          FALSE

   => Exchange Functionals <=

    1.0000   XC_HYB_MGGA_X_MN15

   => Exact (HF) Exchange <=

    0.4400               HF 

   => Correlation Functionals <=

    1.0000   XC_MGGA_C_MN15

   => Molecular Quadrature <=

    Radial Scheme          =       TREUTLER
    Pruning Scheme         =           FLAT
    Nuclear Scheme         =       TREUTLER

    BS radius alpha        =              1
    Pruning alpha          =              1
    Radial Points          =             75
    Spherical Points       =            302
    Total Points           =          44842
    Total Blocks           =            420
    Max Points             =            255
    Max Functions          =            110

   => MN15-D3(BJ): Empirical Dispersion <=

    Grimme's -D3 (BJ-damping) Dispersion Correction
    Grimme S.; Ehrlich S.; Goerigk L. (2011), J. Comput. Chem., 32: 1456
    Parametrisation from:    L. Goerigk, A. Hansen, C. Bauer, S. Ehrlich, A. Najibi, S. Grimme, Phys. Chem. Chem. Phys. 19, 32184-32215, 2017

        s6 =       1.000000
        s8 =       2.097100
        a1 =       0.786200
        a2 =       7.592300

   => Loading Basis Set <=

    Name: (DEF2-TZVPPD AUX)
    Role: JKFIT
    Keyword: DF_BASIS_SCF
    atoms 1-2 entry AG         line  4369 file /work/zw18965/.conda/envs/p4env/share/psi4/basis/def2-tzvpp-jkfit.gbs 

  ==> Pre-Iterations <==

   -------------------------------------------------------
    Irrep   Nso     Nmo     Nalpha   Nbeta   Ndocc  Nsocc
   -------------------------------------------------------
     Ag        23      23       0       0       0       0
     B1g        7       7       0       0       0       0
     B2g       13      13       0       0       0       0
     B3g       13      13       0       0       0       0
     Au         7       7       0       0       0       0
     B1u       23      23       0       0       0       0
     B2u       13      13       0       0       0       0
     B3u       13      13       0       0       0       0
   -------------------------------------------------------
    Total     112     112      19      19      19       0
   -------------------------------------------------------

  ==> Integral Setup <==

  DFHelper Memory: AOs need 0.055 GiB; user supplied 100.294 GiB. Using in-core AOs.

  ==> MemDFJK: Density-Fitted J/K Matrices <==

    J tasked:                   Yes
    K tasked:                   Yes
    wK tasked:                   No
    OpenMP threads:              24
    Memory [MiB]:            102701
    Algorithm:                 Core
    Schwarz Cutoff:           1E-12
    Mask sparsity (%):       0.9885
    Fitting Condition:        1E-10

   => Auxiliary Basis Set <=

  Basis Set: (DEF2-TZVPPD AUX)
    Blend: DEF2-TZVPP-JKFIT
    Number of shells: 98
    Number of basis function: 510
    Number of Cartesian functions: 768
    Spherical Harmonics?: true
    Max angular momentum: 6

  Cached 100.0% of DFT collocation blocks in 0.288 [GiB].

  Minimum eigenvalue in the overlap matrix is 4.1833102936E-03.
  Using Symmetric Orthogonalization.

  SCF Guess: Superposition of Atomic Densities via on-the-fly atomic UHF.

  ==> Iterations <==

                           Total Energy        Delta E     RMS |[F,P]|

   @DF-RKS iter SAD:  -292.89079083320416   -2.92891e+02   0.00000e+00 
   @DF-RKS iter   1:  -293.39023743256053   -4.99447e-01   7.06086e-03 DIIS
   @DF-RKS iter   2:  -293.38848918595261    1.74825e-03   7.86458e-03 DIIS
   @DF-RKS iter   3:  -293.41932379308969   -3.08346e-02   4.29875e-04 DIIS
   @DF-RKS iter   4:  -293.41941505223303   -9.12591e-05   2.20748e-04 DIIS
   @DF-RKS iter   5:  -293.41944213793033   -2.70857e-05   1.08802e-04 DIIS
   @DF-RKS iter   6:  -293.41945072356594   -8.58564e-06   9.83191e-06 DIIS
   @DF-RKS iter   7:  -293.41945129470884   -5.71143e-07   2.30624e-06 DIIS
   @DF-RKS iter   8:  -293.41945130594564   -1.12368e-08   2.27443e-07 DIIS
   @DF-RKS iter   9:  -293.41945130613425   -1.88606e-10   4.51997e-08 DIIS
   @DF-RKS iter  10:  -293.41945130614033   -6.08225e-12   7.21335e-09 DIIS
  Energy and wave function converged.


  ==> Post-Iterations <==

    Orbital Energies [Eh]
    ---------------------

    Doubly Occupied:                                                      

       1Ag    -3.637303     1B1u   -3.636532     2Ag    -2.292393  
       1B2u   -2.285911     1B3u   -2.285911     1B3g   -2.285143  
       1B2g   -2.285143     2B1u   -2.283882     3Ag    -0.403771  
       2B2u   -0.386840     2B3u   -0.386840     4Ag    -0.365613  
       1B1g   -0.365597     3B1u   -0.357032     1Au    -0.357016  
       2B3g   -0.344022     2B2g   -0.344022     4B1u   -0.336647  
       5Ag    -0.238045  

    Virtual:                                                              

       5B1u   -0.071887     3B2u   -0.002092     3B3u   -0.002092  
       6Ag     0.033304     3B3g    0.076412     3B2g    0.076413  
       6B1u    0.137258     7Ag     0.143791     7B1u    0.199159  
       8Ag     0.226156     4B2u    0.230978     4B3u    0.230978  
       4B3g    0.284435     4B2g    0.284435     2B1g    0.411258  
       9Ag     0.411264     8B1u    0.416319     5B2u    0.456989  
       5B3u    0.456989     9B1u    0.508121     2Au     0.508122  
      10Ag     0.624114     5B3g    0.629265     5B2g    0.629265  
      10B1u    0.757510    11Ag     1.400531     6B2u    1.535219  
       6B3u    1.535219    12Ag     1.584712     3B1g    1.584763  
       7B2u    1.602201     7B3u    1.602201     6B2g    1.604537  
       6B3g    1.604537    11B1u    1.615946     3Au     1.615997  
       7B3g    1.641946     7B2g    1.641946     8B2u    1.646195  
       8B3u    1.646195    12B1u    1.665351    13Ag     1.734321  
       8B3g    1.747135     8B2g    1.747135    13B1u    1.764228  
      14Ag     1.938904     4B1g    2.041039    15Ag     2.041044  
       9B2u    2.056769     9B3u    2.056769     4Au     2.080663  
      14B1u    2.080667    16Ag     2.128745     9B3g    2.143277  
       9B2g    2.143277    15B1u    2.294197    16B1u    2.334814  
      10B2u    4.577125    10B3u    4.577125    17Ag     4.588346  
      18Ag     4.616883     5B1g    4.616966    11B3u    4.629176  
      11B2u    4.629176    10B2g    4.631082    10B3g    4.631082  
      17B1u    4.643338     5Au     4.643421    11B3g    4.726824  
      11B2g    4.726824    18B1u    4.921099    12B2u    5.432133  
      12B3u    5.432133    19Ag     5.433946    20Ag     5.434331  
       6B1g    5.434417    19B1u    5.434956     6Au     5.435040  
      13B2u    5.436763    13B3u    5.436763    12B2g    5.436801  
      12B3g    5.436801    13B3g    5.436982    13B2g    5.436982  
      21Ag     5.438900    20B1u    5.438900     7B1g    5.439084  
       7Au     5.439085    21B1u    5.450143    22Ag    32.795954  
      22B1u   33.039454    23Ag   110.563630    23B1u  110.641262  

    Final Occupation by Irrep:
             Ag   B1g   B2g   B3g    Au   B1u   B2u   B3u 
    DOCC [     5,    1,    2,    2,    1,    4,    2,    2 ]

  @DF-RKS Final Energy:  -293.41945130614033

   => Energetics <=

    Nuclear Repulsion Energy =             75.6973346662759781
    One-Electron Energy =                -672.8851175249212702
    Two-Electron Energy =                 319.7441954243638520
    DFT Exchange-Correlation Energy =     -15.9758203818588953
    Empirical Dispersion Energy =          -0.0000434900000000
    VV10 Nonlocal Energy =                  0.0000000000000000
    Total Energy =                       -293.4194513061403313

Computation Completed


Properties will be evaluated at   0.000000,   0.000000,   0.000000 [a0]

Properties computed using the SCF density matrix

  Nuclear Dipole Moment: [e a0]
     X:     0.0000      Y:     0.0000      Z:     0.0000

  Electronic Dipole Moment: [e a0]
     X:     0.0000      Y:     0.0000      Z:     0.0000

  Dipole Moment: [e a0]
     X:     0.0000      Y:     0.0000      Z:     0.0000     Total:     0.0000

  Dipole Moment: [D]
     X:     0.0000      Y:     0.0000      Z:     0.0000     Total:     0.0000


*** tstop() called on bp1-compute00145.data.bp.acrc.priv at Fri Oct 29 08:37:25 2021
Module time:
	user time   =      56.33 seconds =       0.94 minutes
	system time =       3.03 seconds =       0.05 minutes
	total time  =          5 seconds =       0.08 minutes
Total time:
	user time   =      56.33 seconds =       0.94 minutes
	system time =       3.03 seconds =       0.05 minutes
	total time  =          5 seconds =       0.08 minutes

*** tstart() called on bp1-compute00145.data.bp.acrc.priv
*** at Fri Oct 29 08:37:25 2021


         ------------------------------------------------------------
                                   SCF GRAD                          
                          Rob Parrish, Justin Turney,                
                       Andy Simmonett, and Alex Sokolov              
         ------------------------------------------------------------

  ==> Geometry <==

    Molecular point group: d2h
    Full point group: D_inf_h

    Geometry (in Angstrom), charge = 0, multiplicity = 1:

       Center              X                  Y                   Z               Mass       
    ------------   -----------------  -----------------  -----------------  -----------------
         AG           0.000000000000     0.000000000000     1.261821000000   106.905091600000
         AG           0.000000000000     0.000000000000    -1.261821000000   106.905091600000

  Nuclear repulsion =   75.697334666275978

  ==> Basis Set <==

  Basis Set: DEF2-TZVPPD
    Blend: DEF2-TZVPPD
    Number of shells: 32
    Number of basis function: 112
    Number of Cartesian functions: 142
    Spherical Harmonics?: true
    Max angular momentum: 4

  Core potential: DEF2-TZVPPD
    Number of shells: 8
    Number of ECP primitives: 28
    Number of ECP core electrons: 56
    Max angular momentum: 3

  ==> DFJKGrad: Density-Fitted SCF Gradients <==

    Gradient:                    1
    J tasked:                  Yes
    K tasked:                  Yes
    wK tasked:                  No
    OpenMP threads:             24
    Integrals threads:          24
    Memory [MiB]:           102996
    Schwarz Cutoff:          0E+00
    Fitting Condition:       1E-10

   => Auxiliary Basis Set <=

  Basis Set: (DEF2-TZVPPD AUX)
    Blend: DEF2-TZVPP-JKFIT
    Number of shells: 98
    Number of basis function: 510
    Number of Cartesian functions: 768
    Spherical Harmonics?: true
    Max angular momentum: 6

  ==> DFT Potential <==

   => Composite Functional: MN15-D3BJ <= 

   MN15 Hybrid Meta-GGA Exchange-Correlation Functional

    H. S. Yu, X. He, S. L. Li, and D. G. Truhlar, Chem. Sci. 7, 5032-5051, 2016


    Deriv               =              1
    GGA                 =           TRUE
    Meta                =           TRUE

    Exchange Hybrid     =           TRUE
    MP2 Hybrid          =          FALSE

   => Exchange Functionals <=

    1.0000   XC_HYB_MGGA_X_MN15

   => Exact (HF) Exchange <=

    0.4400               HF 

   => Correlation Functionals <=

    1.0000   XC_MGGA_C_MN15

   => Molecular Quadrature <=

    Radial Scheme          =       TREUTLER
    Pruning Scheme         =           FLAT
    Nuclear Scheme         =       TREUTLER

    BS radius alpha        =              1
    Pruning alpha          =              1
    Radial Points          =             75
    Spherical Points       =            302
    Total Points           =          44842
    Total Blocks           =            420
    Max Points             =            255
    Max Functions          =            110


  -Total Gradient:
     Atom            X                  Y                   Z
    ------   -----------------  -----------------  -----------------
       1        0.000000000000     0.000000000000    -0.160915267899
       2        0.000000000000     0.000000000000     0.160915267899


*** tstop() called on bp1-compute00145.data.bp.acrc.priv at Fri Oct 29 08:37:30 2021
Module time:
	user time   =      41.15 seconds =       0.69 minutes
	system time =       2.94 seconds =       0.05 minutes
	total time  =          5 seconds =       0.08 minutes
Total time:
	user time   =      98.45 seconds =       1.64 minutes
	system time =       6.03 seconds =       0.10 minutes
	total time  =         10 seconds =       0.17 minutes


  ==> Adding ECP gradient terms (computed numerically) <==

  -ECP Gradient:
     Atom            X                  Y                   Z
    ------   -----------------  -----------------  -----------------
       1       -0.000000000000    -0.000000000000     0.157153943888
       2       -0.000000000000    -0.000000000000    -0.157153943888


  -Total Gradient:
     Atom            X                  Y                   Z
    ------   -----------------  -----------------  -----------------
       1       -0.000000000000    -0.000000000000    -0.003761324011
       2       -0.000000000000    -0.000000000000     0.003761324011


			-----------------------------------------
			 OPTKING 2.0: for geometry optimizations 
			  - R.A. King,  Bethel University        
			-----------------------------------------
	At level 1: Red. Int., RFO, no backsteps, dynamic trust

	Internal coordinates to be generated automatically.
	Detected frag 1 with atoms:  1 2
	---Fragment 1 Bond Connectivity---
	 1 : 2
	 2 : 1

	---Fragment 1 Geometry and Gradient---
	 AG          0.0000000000        0.0000000000        2.3844961094
	 AG          0.0000000000        0.0000000000       -2.3844961094
	            -0.0000000000       -0.0000000000       -0.0037613240
	            -0.0000000000       -0.0000000000        0.0037613240

	Previous optimization step data not found.  Starting new optimization.

	---Fragment 1 Intrafragment Coordinates---
	 - Coordinate -           - BOHR/RAD -       - ANG/DEG -
	 R(1,2)           =         4.768992	       2.523642

	Current energy   :      -293.4194513061

	Generating empirical Hessian (Schlegel '84) for each fragment.
	Taking RFO optimization step.
	Going to follow RFO solution 1.
	Using RFO vector 1.
	Norm of target step-size    0.04266
	Projected energy change by RFO approximation:         0.0007483069

	Back-transformation to cartesian coordinates...
	Successfully converged to displaced geometry.

	--- Internal Coordinate Step in ANG or DEG, aJ/ANG or AJ/DEG ---
	 ---------------------------------------------------------------------------
	   Coordinate                Previous        Force       Change         New 
	   ----------                --------       ------       ------       ------
	    1 R(1,2)          =      2.523642     0.030989     0.022577     2.546219
	 ---------------------------------------------------------------------------
	Successfully symmetrized geometry.

  ==> Convergence Check <==

  Measures of convergence in internal coordinates in au.
  Criteria marked as inactive (o), active & met (*), and active & unmet ( ).
  --------------------------------------------------------------------------------------------- ~
   Step     Total Energy     Delta E     MAX Force     RMS Force      MAX Disp      RMS Disp    ~
  --------------------------------------------------------------------------------------------- ~
    Convergence Criteria    1.00e-06 *    3.00e-04 *             o    1.20e-03 *             o  ~
  --------------------------------------------------------------------------------------------- ~
      1    -293.41945131   -2.93e+02      3.76e-03      3.76e-03 o    4.27e-02      4.27e-02 o  ~
  ---------------------------------------------------------------------------------------------

	Writing optimization data to binary file.
	Structure for next step:
	Cartesian Geometry (in Angstrom)
	   AG     0.0000000000   0.0000000000   1.2731096325
	   AG     0.0000000000   0.0000000000  -1.2731096325
			--------------------------
			 OPTKING Finished Execution 
			--------------------------

    Structure for next step:
    Molecular point group: d2h
    Full point group: D_inf_h

    Geometry (in Angstrom), charge = 0, multiplicity = 1:

    AG           0.000000000000     0.000000000000     1.273109637488
    AG           0.000000000000     0.000000000000    -1.273109637488

gradient() will perform analytic gradient computation.

*** tstart() called on bp1-compute00145.data.bp.acrc.priv
*** at Fri Oct 29 08:38:19 2021

   => Loading Basis Set <=

    Name: DEF2-TZVPPD
    Role: ORBITAL
    Keyword: BASIS
    atoms 1-2 entry AG         line  2174 (ECP: line  3646) file /work/zw18965/.conda/envs/p4env/share/psi4/basis/def2-tzvppd.gbs 

    !!!  WARNING: ECP capability is in beta. Please check occupations closely.  !!!


         ---------------------------------------------------------
                                   SCF
               by Justin Turney, Rob Parrish, Andy Simmonett
                          and Daniel G. A. Smith
                              RKS Reference
                       24 Threads, 137329 MiB Core
         ---------------------------------------------------------

  ==> Geometry <==

    Molecular point group: d2h
    Full point group: D_inf_h

    Geometry (in Angstrom), charge = 0, multiplicity = 1:

       Center              X                  Y                   Z               Mass       
    ------------   -----------------  -----------------  -----------------  -----------------
         AG           0.000000000000     0.000000000000     1.273109637488   106.905091600000
         AG           0.000000000000     0.000000000000    -1.273109637488   106.905091600000

  Running in d2h symmetry.

  Rotational constants: A = ************  B =      0.04864  C =      0.04864 [cm^-1]
  Rotational constants: A = ************  B =   1458.33467  C =   1458.33467 [MHz]
  Nuclear repulsion =   75.026127925961561

  Charge       = 0
  Multiplicity = 1
  Electrons    = 38
  Nalpha       = 19
  Nbeta        = 19

  ==> Algorithm <==

  SCF Algorithm Type is DF.
  DIIS enabled.
  MOM disabled.
  Fractional occupation disabled.
  Guess Type is READ.
  Energy threshold   = 1.00e-08
  Density threshold  = 1.00e-08
  Integral threshold = 0.00e+00

  ==> Primary Basis <==

  Basis Set: DEF2-TZVPPD
    Blend: DEF2-TZVPPD
    Number of shells: 32
    Number of basis function: 112
    Number of Cartesian functions: 142
    Spherical Harmonics?: true
    Max angular momentum: 4

  Core potential: DEF2-TZVPPD
    Number of shells: 8
    Number of ECP primitives: 28
    Number of ECP core electrons: 56
    Max angular momentum: 3

  ==> DFT Potential <==

   => Composite Functional: MN15-D3BJ <= 

   MN15 Hybrid Meta-GGA Exchange-Correlation Functional

    H. S. Yu, X. He, S. L. Li, and D. G. Truhlar, Chem. Sci. 7, 5032-5051, 2016


    Deriv               =              1
    GGA                 =           TRUE
    Meta                =           TRUE

    Exchange Hybrid     =           TRUE
    MP2 Hybrid          =          FALSE

   => Exchange Functionals <=

    1.0000   XC_HYB_MGGA_X_MN15

   => Exact (HF) Exchange <=

    0.4400               HF 

   => Correlation Functionals <=

    1.0000   XC_MGGA_C_MN15

   => Molecular Quadrature <=

    Radial Scheme          =       TREUTLER
    Pruning Scheme         =           FLAT
    Nuclear Scheme         =       TREUTLER

    BS radius alpha        =              1
    Pruning alpha          =              1
    Radial Points          =             75
    Spherical Points       =            302
    Total Points           =          44842
    Total Blocks           =            422
    Max Points             =            255
    Max Functions          =            110

   => MN15-D3(BJ): Empirical Dispersion <=

    Grimme's -D3 (BJ-damping) Dispersion Correction
    Grimme S.; Ehrlich S.; Goerigk L. (2011), J. Comput. Chem., 32: 1456
    Parametrisation from:    L. Goerigk, A. Hansen, C. Bauer, S. Ehrlich, A. Najibi, S. Grimme, Phys. Chem. Chem. Phys. 19, 32184-32215, 2017

        s6 =       1.000000
        s8 =       2.097100
        a1 =       0.786200
        a2 =       7.592300

   => Loading Basis Set <=

    Name: (DEF2-TZVPPD AUX)
    Role: JKFIT
    Keyword: DF_BASIS_SCF
    atoms 1-2 entry AG         line  4369 file /work/zw18965/.conda/envs/p4env/share/psi4/basis/def2-tzvpp-jkfit.gbs 

   => Loading Basis Set <=

    Name: DEF2-TZVPPD
    Role: ORBITAL
    Keyword: BASIS
    atoms 1-2 entry AG         line  2174 (ECP: line  3646) file /work/zw18965/.conda/envs/p4env/share/psi4/basis/def2-tzvppd.gbs 

    !!!  WARNING: ECP capability is in beta. Please check occupations closely.  !!!

  Reading orbitals from file 180, no projection.

  ==> Pre-Iterations <==

   -------------------------------------------------------
    Irrep   Nso     Nmo     Nalpha   Nbeta   Ndocc  Nsocc
   -------------------------------------------------------
     Ag        23      23       0       0       0       0
     B1g        7       7       0       0       0       0
     B2g       13      13       0       0       0       0
     B3g       13      13       0       0       0       0
     Au         7       7       0       0       0       0
     B1u       23      23       0       0       0       0
     B2u       13      13       0       0       0       0
     B3u       13      13       0       0       0       0
   -------------------------------------------------------
    Total     112     112      19      19      19       0
   -------------------------------------------------------

  ==> Integral Setup <==

  DFHelper Memory: AOs need 0.055 GiB; user supplied 100.296 GiB. Using in-core AOs.

  ==> MemDFJK: Density-Fitted J/K Matrices <==

    J tasked:                   Yes
    K tasked:                   Yes
    wK tasked:                   No
    OpenMP threads:              24
    Memory [MiB]:            102702
    Algorithm:                 Core
    Schwarz Cutoff:           1E-12
    Mask sparsity (%):       1.0523
    Fitting Condition:        1E-10

   => Auxiliary Basis Set <=

  Basis Set: (DEF2-TZVPPD AUX)
    Blend: DEF2-TZVPP-JKFIT
    Number of shells: 98
    Number of basis function: 510
    Number of Cartesian functions: 768
    Spherical Harmonics?: true
    Max angular momentum: 6

  Cached 100.0% of DFT collocation blocks in 0.287 [GiB].

  Minimum eigenvalue in the overlap matrix is 4.3689489856E-03.
  Using Symmetric Orthogonalization.

  SCF Guess: Orbitals guess was supplied from a previous computation.

  ==> Iterations <==

                           Total Energy        Delta E     RMS |[F,P]|

   @DF-RKS iter   0:  -293.41963598566224   -2.93420e+02   7.61298e-04 
   @DF-RKS iter   1:  -293.41953430186578    1.01684e-04   3.70254e-05 DIIS
   @DF-RKS iter   2:  -293.41953472674425   -4.24878e-07   3.40628e-05 DIIS
   @DF-RKS iter   3:  -293.41953520009008   -4.73346e-07   7.77159e-06 DIIS
   @DF-RKS iter   4:  -293.41953524371030   -4.36202e-08   1.36543e-06 DIIS
   @DF-RKS iter   5:  -293.41953524977521   -6.06491e-09   8.64598e-07 DIIS
   @DF-RKS iter   6:  -293.41953525043766   -6.62453e-10   2.66630e-07 DIIS
   @DF-RKS iter   7:  -293.41953525057664   -1.38982e-10   3.71598e-08 DIIS
   @DF-RKS iter   8:  -293.41953525057869   -2.04636e-12   5.21891e-09 DIIS
  Energy and wave function converged.


  ==> Post-Iterations <==

    Orbital Energies [Eh]
    ---------------------

    Doubly Occupied:                                                      

       1Ag    -3.637064     1B1u   -3.636377     2Ag    -2.291700  
       1B2u   -2.285754     1B3u   -2.285754     1B3g   -2.285055  
       1B2g   -2.285055     2B1u   -2.283891     3Ag    -0.401880  
       2B3u   -0.385549     2B2u   -0.385549     4Ag    -0.365318  
       1B1g   -0.365303     3B1u   -0.357178     1Au    -0.357163  
       2B2g   -0.344696     2B3g   -0.344696     4B1u   -0.337532  
       5Ag    -0.237439  

    Virtual:                                                              

       5B1u   -0.072578     3B2u   -0.001967     3B3u   -0.001967  
       6Ag     0.032725     3B3g    0.075754     3B2g    0.075754  
       6B1u    0.136493     7Ag     0.143663     7B1u    0.199182  
       8Ag     0.225752     4B2u    0.231295     4B3u    0.231295  
       4B3g    0.283721     4B2g    0.283721     2B1g    0.411749  
       9Ag     0.411755     8B1u    0.412360     5B3u    0.454788  
       5B2u    0.454788     9B1u    0.507285     2Au     0.507287  
      10Ag     0.622581     5B3g    0.628265     5B2g    0.628265  
      10B1u    0.755223    11Ag     1.414743     6B2u    1.541150  
       6B3u    1.541150    12Ag     1.586296     3B1g    1.586345  
       7B3u    1.602367     7B2u    1.602367     6B2g    1.604432  
       6B3g    1.604432    11B1u    1.614550     3Au     1.614599  
       7B3g    1.638588     7B2g    1.638588     8B2u    1.646111  
       8B3u    1.646111    12B1u    1.665214    13Ag     1.734821  
       8B3g    1.743218     8B2g    1.743218    13B1u    1.755838  
      14Ag     1.932373     4B1g    2.041303    15Ag     2.041304  
       9B2u    2.060294     9B3u    2.060294    14B1u    2.080345  
       4Au     2.080345    16Ag     2.133597     9B3g    2.140305  
       9B2g    2.140305    15B1u    2.289209    16B1u    2.321324  
      10B3u    4.581345    10B2u    4.581345    17Ag     4.587222  
      18Ag     4.618364     5B1g    4.618436    11B2u    4.629409  
      11B3u    4.629409    10B3g    4.631083    10B2g    4.631083  
      17B1u    4.642090     5Au     4.642162    11B2g    4.720345  
      11B3g    4.720345    18B1u    4.908885    12B3u    5.432623  
      12B2u    5.432623    19Ag     5.434157    20Ag     5.434641  
       6B1g    5.434734    19B1u    5.435155     6Au     5.435246  
      12B2g    5.436785    12B3g    5.436785    13B3u    5.436914  
      13B2u    5.436914    13B2g    5.436961    13B3g    5.436961  
      21Ag     5.438921    20B1u    5.438922     7B1g    5.439115  
       7Au     5.439115    21B1u    5.447830    22Ag    32.792358  
      22B1u   33.035575    23Ag   110.562626    23B1u  110.640131  

    Final Occupation by Irrep:
             Ag   B1g   B2g   B3g    Au   B1u   B2u   B3u 
    DOCC [     5,    1,    2,    2,    1,    4,    2,    2 ]

  @DF-RKS Final Energy:  -293.41953525057869

   => Energetics <=

    Nuclear Repulsion Energy =             75.0261279259615605
    One-Electron Energy =                -671.5539817521972736
    Two-Electron Energy =                 319.0824065608825322
    DFT Exchange-Correlation Energy =     -15.9740444752254636
    Empirical Dispersion Energy =          -0.0000435100000000
    VV10 Nonlocal Energy =                  0.0000000000000000
    Total Energy =                       -293.4195352505786900

Computation Completed


Properties will be evaluated at   0.000000,   0.000000,   0.000000 [a0]

Properties computed using the SCF density matrix

  Nuclear Dipole Moment: [e a0]
     X:     0.0000      Y:     0.0000      Z:    -0.0000

  Electronic Dipole Moment: [e a0]
     X:     0.0000      Y:     0.0000      Z:     0.0000

  Dipole Moment: [e a0]
     X:     0.0000      Y:     0.0000      Z:    -0.0000     Total:     0.0000

  Dipole Moment: [D]
     X:     0.0000      Y:     0.0000      Z:    -0.0000     Total:     0.0000


*** tstop() called on bp1-compute00145.data.bp.acrc.priv at Fri Oct 29 08:38:22 2021
Module time:
	user time   =      43.08 seconds =       0.72 minutes
	system time =       2.05 seconds =       0.03 minutes
	total time  =          3 seconds =       0.05 minutes
Total time:
	user time   =     494.66 seconds =       8.24 minutes
	system time =      21.54 seconds =       0.36 minutes
	total time  =         62 seconds =       1.03 minutes

*** tstart() called on bp1-compute00145.data.bp.acrc.priv
*** at Fri Oct 29 08:38:22 2021


         ------------------------------------------------------------
                                   SCF GRAD                          
                          Rob Parrish, Justin Turney,                
                       Andy Simmonett, and Alex Sokolov              
         ------------------------------------------------------------

  ==> Geometry <==

    Molecular point group: d2h
    Full point group: D_inf_h

    Geometry (in Angstrom), charge = 0, multiplicity = 1:

       Center              X                  Y                   Z               Mass       
    ------------   -----------------  -----------------  -----------------  -----------------
         AG           0.000000000000     0.000000000000     1.273109637488   106.905091600000
         AG           0.000000000000     0.000000000000    -1.273109637488   106.905091600000

  Nuclear repulsion =   75.026127925961561

  ==> Basis Set <==

  Basis Set: DEF2-TZVPPD
    Blend: DEF2-TZVPPD
    Number of shells: 32
    Number of basis function: 112
    Number of Cartesian functions: 142
    Spherical Harmonics?: true
    Max angular momentum: 4

  Core potential: DEF2-TZVPPD
    Number of shells: 8
    Number of ECP primitives: 28
    Number of ECP core electrons: 56
    Max angular momentum: 3

  ==> DFJKGrad: Density-Fitted SCF Gradients <==

    Gradient:                    1
    J tasked:                  Yes
    K tasked:                  Yes
    wK tasked:                  No
    OpenMP threads:             24
    Integrals threads:          24
    Memory [MiB]:           102996
    Schwarz Cutoff:          0E+00
    Fitting Condition:       1E-10

   => Auxiliary Basis Set <=

  Basis Set: (DEF2-TZVPPD AUX)
    Blend: DEF2-TZVPP-JKFIT
    Number of shells: 98
    Number of basis function: 510
    Number of Cartesian functions: 768
    Spherical Harmonics?: true
    Max angular momentum: 6

  ==> DFT Potential <==

   => Composite Functional: MN15-D3BJ <= 

   MN15 Hybrid Meta-GGA Exchange-Correlation Functional

    H. S. Yu, X. He, S. L. Li, and D. G. Truhlar, Chem. Sci. 7, 5032-5051, 2016


    Deriv               =              1
    GGA                 =           TRUE
    Meta                =           TRUE

    Exchange Hybrid     =           TRUE
    MP2 Hybrid          =          FALSE

   => Exchange Functionals <=

    1.0000   XC_HYB_MGGA_X_MN15

   => Exact (HF) Exchange <=

    0.4400               HF 

   => Correlation Functionals <=

    1.0000   XC_MGGA_C_MN15

   => Molecular Quadrature <=

    Radial Scheme          =       TREUTLER
    Pruning Scheme         =           FLAT
    Nuclear Scheme         =       TREUTLER

    BS radius alpha        =              1
    Pruning alpha          =              1
    Radial Points          =             75
    Spherical Points       =            302
    Total Points           =          44842
    Total Blocks           =            422
    Max Points             =            255
    Max Functions          =            110


  -Total Gradient:
     Atom            X                  Y                   Z
    ------   -----------------  -----------------  -----------------
       1        0.000000000000     0.000000000000    -0.150856919305
       2        0.000000000000     0.000000000000     0.150856919305


*** tstop() called on bp1-compute00145.data.bp.acrc.priv at Fri Oct 29 08:38:27 2021
Module time:
	user time   =      38.19 seconds =       0.64 minutes
	system time =       2.42 seconds =       0.04 minutes
	total time  =          5 seconds =       0.08 minutes
Total time:
	user time   =     534.00 seconds =       8.90 minutes
	system time =      24.04 seconds =       0.40 minutes
	total time  =         67 seconds =       1.12 minutes


  ==> Adding ECP gradient terms (computed numerically) <==

  -ECP Gradient:
     Atom            X                  Y                   Z
    ------   -----------------  -----------------  -----------------
       1        0.000000000000    -0.000000000000     0.150458947941
       2        0.000000000000    -0.000000000000    -0.150458947941


  -Total Gradient:
     Atom            X                  Y                   Z
    ------   -----------------  -----------------  -----------------
       1        0.000000000000    -0.000000000000    -0.000397971365
       2        0.000000000000    -0.000000000000     0.000397971365


			-----------------------------------------
			 OPTKING 2.0: for geometry optimizations 
			  - R.A. King,  Bethel University        
			-----------------------------------------
	At level 1: Red. Int., RFO, no backsteps, dynamic trust

	Previous internal coordinate definitions found.
	---Fragment 1 Geometry and Gradient---
	 AG          0.0000000000        0.0000000000        2.4058285425
	 AG          0.0000000000        0.0000000000       -2.4058285425
	             0.0000000000       -0.0000000000       -0.0003979714
	             0.0000000000       -0.0000000000        0.0003979714

	---Fragment 1 Intrafragment Coordinates---
	 - Coordinate -           - BOHR/RAD -       - ANG/DEG -
	 R(1,2)           =         4.811657	       2.546219

	Current energy   :      -293.4195352506

	Energy change for the previous step:
		Projected    :         0.0007483069
		Actual       :        -0.0000839444

	Performing BFGS update.
	Previous computed or guess Hessian on step 1.
	Steps to be used in Hessian update: 1
	Taking RFO optimization step.
	Going to follow RFO solution 1.
	Using RFO vector 1.
	Norm of target step-size    0.00505
	Projected energy change by RFO approximation:         0.0000107330

	Back-transformation to cartesian coordinates...
	Successfully converged to displaced geometry.

	--- Internal Coordinate Step in ANG or DEG, aJ/ANG or AJ/DEG ---
	 ---------------------------------------------------------------------------
	   Coordinate                Previous        Force       Change         New 
	   ----------                --------       ------       ------       ------
	    1 R(1,2)          =      2.546219     0.003279     0.002671     2.548891
	 ---------------------------------------------------------------------------
	Successfully symmetrized geometry.

  ==> Convergence Check <==

  Measures of convergence in internal coordinates in au.
  Criteria marked as inactive (o), active & met (*), and active & unmet ( ).
  ---------------------------------------------------------------------------------------------
   Step     Total Energy     Delta E     MAX Force     RMS Force      MAX Disp      RMS Disp   
  ---------------------------------------------------------------------------------------------
    Convergence Criteria    1.00e-06 *    3.00e-04 *             o    1.20e-03 *             o
  ---------------------------------------------------------------------------------------------
      2    -293.41953525   -8.39e-05      3.98e-04      3.98e-04 o    5.05e-03      5.05e-03 o  ~
  ---------------------------------------------------------------------------------------------

	Writing optimization data to binary file.
	Structure for next step:
	Cartesian Geometry (in Angstrom)
	   AG     0.0000000000   0.0000000000   1.2744453354
	   AG     0.0000000000   0.0000000000  -1.2744453354
			--------------------------
			 OPTKING Finished Execution 
			--------------------------

    Structure for next step:
    Molecular point group: d2h
    Full point group: D_inf_h

    Geometry (in Angstrom), charge = 0, multiplicity = 1:

    AG           0.000000000000     0.000000000000     1.274445340415
    AG           0.000000000000     0.000000000000    -1.274445340415

gradient() will perform analytic gradient computation.

*** tstart() called on bp1-compute00145.data.bp.acrc.priv
*** at Fri Oct 29 08:39:16 2021

   => Loading Basis Set <=

    Name: DEF2-TZVPPD
    Role: ORBITAL
    Keyword: BASIS
    atoms 1-2 entry AG         line  2174 (ECP: line  3646) file /work/zw18965/.conda/envs/p4env/share/psi4/basis/def2-tzvppd.gbs 

    !!!  WARNING: ECP capability is in beta. Please check occupations closely.  !!!


         ---------------------------------------------------------
                                   SCF
               by Justin Turney, Rob Parrish, Andy Simmonett
                          and Daniel G. A. Smith
                              RKS Reference
                       24 Threads, 137329 MiB Core
         ---------------------------------------------------------

  ==> Geometry <==

    Molecular point group: d2h
    Full point group: D_inf_h

    Geometry (in Angstrom), charge = 0, multiplicity = 1:

       Center              X                  Y                   Z               Mass       
    ------------   -----------------  -----------------  -----------------  -----------------
         AG           0.000000000000     0.000000000000     1.274445340415   106.905091600000
         AG           0.000000000000     0.000000000000    -1.274445340415   106.905091600000

  Running in d2h symmetry.

  Rotational constants: A = ************  B =      0.04854  C =      0.04854 [cm^-1]
  Rotational constants: A = ************  B =   1455.27941  C =   1455.27941 [MHz]
  Nuclear repulsion =   74.947495586468250

  Charge       = 0
  Multiplicity = 1
  Electrons    = 38
  Nalpha       = 19
  Nbeta        = 19

  ==> Algorithm <==

  SCF Algorithm Type is DF.
  DIIS enabled.
  MOM disabled.
  Fractional occupation disabled.
  Guess Type is READ.
  Energy threshold   = 1.00e-08
  Density threshold  = 1.00e-08
  Integral threshold = 0.00e+00

  ==> Primary Basis <==

  Basis Set: DEF2-TZVPPD
    Blend: DEF2-TZVPPD
    Number of shells: 32
    Number of basis function: 112
    Number of Cartesian functions: 142
    Spherical Harmonics?: true
    Max angular momentum: 4

  Core potential: DEF2-TZVPPD
    Number of shells: 8
    Number of ECP primitives: 28
    Number of ECP core electrons: 56
    Max angular momentum: 3

  ==> DFT Potential <==

   => Composite Functional: MN15-D3BJ <= 

   MN15 Hybrid Meta-GGA Exchange-Correlation Functional

    H. S. Yu, X. He, S. L. Li, and D. G. Truhlar, Chem. Sci. 7, 5032-5051, 2016


    Deriv               =              1
    GGA                 =           TRUE
    Meta                =           TRUE

    Exchange Hybrid     =           TRUE
    MP2 Hybrid          =          FALSE

   => Exchange Functionals <=

    1.0000   XC_HYB_MGGA_X_MN15

   => Exact (HF) Exchange <=

    0.4400               HF 

   => Correlation Functionals <=

    1.0000   XC_MGGA_C_MN15

   => Molecular Quadrature <=

    Radial Scheme          =       TREUTLER
    Pruning Scheme         =           FLAT
    Nuclear Scheme         =       TREUTLER

    BS radius alpha        =              1
    Pruning alpha          =              1
    Radial Points          =             75
    Spherical Points       =            302
    Total Points           =          44842
    Total Blocks           =            422
    Max Points             =            255
    Max Functions          =            110

   => MN15-D3(BJ): Empirical Dispersion <=

    Grimme's -D3 (BJ-damping) Dispersion Correction
    Grimme S.; Ehrlich S.; Goerigk L. (2011), J. Comput. Chem., 32: 1456
    Parametrisation from:    L. Goerigk, A. Hansen, C. Bauer, S. Ehrlich, A. Najibi, S. Grimme, Phys. Chem. Chem. Phys. 19, 32184-32215, 2017

        s6 =       1.000000
        s8 =       2.097100
        a1 =       0.786200
        a2 =       7.592300

   => Loading Basis Set <=

    Name: (DEF2-TZVPPD AUX)
    Role: JKFIT
    Keyword: DF_BASIS_SCF
    atoms 1-2 entry AG         line  4369 file /work/zw18965/.conda/envs/p4env/share/psi4/basis/def2-tzvpp-jkfit.gbs 

   => Loading Basis Set <=

    Name: DEF2-TZVPPD
    Role: ORBITAL
    Keyword: BASIS
    atoms 1-2 entry AG         line  2174 (ECP: line  3646) file /work/zw18965/.conda/envs/p4env/share/psi4/basis/def2-tzvppd.gbs 

    !!!  WARNING: ECP capability is in beta. Please check occupations closely.  !!!

  Reading orbitals from file 180, no projection.

  ==> Pre-Iterations <==

   -------------------------------------------------------
    Irrep   Nso     Nmo     Nalpha   Nbeta   Ndocc  Nsocc
   -------------------------------------------------------
     Ag        23      23       0       0       0       0
     B1g        7       7       0       0       0       0
     B2g       13      13       0       0       0       0
     B3g       13      13       0       0       0       0
     Au         7       7       0       0       0       0
     B1u       23      23       0       0       0       0
     B2u       13      13       0       0       0       0
     B3u       13      13       0       0       0       0
   -------------------------------------------------------
    Total     112     112      19      19      19       0
   -------------------------------------------------------

  ==> Integral Setup <==

  DFHelper Memory: AOs need 0.055 GiB; user supplied 100.296 GiB. Using in-core AOs.

  ==> MemDFJK: Density-Fitted J/K Matrices <==

    J tasked:                   Yes
    K tasked:                   Yes
    wK tasked:                   No
    OpenMP threads:              24
    Memory [MiB]:            102702
    Algorithm:                 Core
    Schwarz Cutoff:           1E-12
    Mask sparsity (%):       1.0523
    Fitting Condition:        1E-10

   => Auxiliary Basis Set <=

  Basis Set: (DEF2-TZVPPD AUX)
    Blend: DEF2-TZVPP-JKFIT
    Number of shells: 98
    Number of basis function: 510
    Number of Cartesian functions: 768
    Spherical Harmonics?: true
    Max angular momentum: 6

  Cached 100.0% of DFT collocation blocks in 0.287 [GiB].

  Minimum eigenvalue in the overlap matrix is 4.3912621558E-03.
  Using Symmetric Orthogonalization.

  SCF Guess: Orbitals guess was supplied from a previous computation.

  ==> Iterations <==

                           Total Energy        Delta E     RMS |[F,P]|

   @DF-RKS iter   0:  -293.41952531136343   -2.93420e+02   8.86025e-05 
   @DF-RKS iter   1:  -293.41953592650754   -1.06151e-05   3.90160e-06 DIIS
   @DF-RKS iter   2:  -293.41953593378037   -7.27283e-09   3.23735e-06 DIIS
   @DF-RKS iter   3:  -293.41953593791959   -4.13922e-09   9.04056e-07 DIIS
   @DF-RKS iter   4:  -293.41953593850394   -5.84350e-10   1.56396e-07 DIIS
   @DF-RKS iter   5:  -293.41953593858693   -8.29914e-11   8.43017e-08 DIIS
   @DF-RKS iter   6:  -293.41953593859387   -6.93490e-12   3.28672e-08 DIIS
   @DF-RKS iter   7:  -293.41953593859546   -1.59162e-12   4.60116e-09 DIIS
  Energy and wave function converged.


  ==> Post-Iterations <==

    Orbital Energies [Eh]
    ---------------------

    Doubly Occupied:                                                      

       1Ag    -3.637038     1B1u   -3.636360     2Ag    -2.291622  
       1B3u   -2.285736     1B2u   -2.285736     1B2g   -2.285046  
       1B3g   -2.285046     2B1u   -2.283892     3Ag    -0.401662  
       2B3u   -0.385401     2B2u   -0.385401     4Ag    -0.365285  
       1B1g   -0.365270     3B1u   -0.357196     1Au    -0.357181  
       2B2g   -0.344774     2B3g   -0.344774     4B1u   -0.337635  
       5Ag    -0.237368  

    Virtual:                                                              

       5B1u   -0.072660     3B3u   -0.001953     3B2u   -0.001953  
       6Ag     0.032657     3B2g    0.075677     3B3g    0.075677  
       6B1u    0.136403     7Ag     0.143648     7B1u    0.199184  
       8Ag     0.225706     4B2u    0.231332     4B3u    0.231332  
       4B2g    0.283638     4B3g    0.283638     2B1g    0.411808  
       9Ag     0.411814     8B1u    0.411894     5B3u    0.454528  
       5B2u    0.454528     9B1u    0.507185     2Au     0.507188  
      10Ag     0.622392     5B3g    0.628146     5B2g    0.628146  
      10B1u    0.754960    11Ag     1.416416     6B2u    1.541814  
       6B3u    1.541814    12Ag     1.586474     3B1g    1.586523  
       7B2u    1.602385     7B3u    1.602385     6B3g    1.604419  
       6B2g    1.604419    11B1u    1.614393     3Au     1.614442  
       7B2g    1.638193     7B3g    1.638193     8B3u    1.646104  
       8B2u    1.646104    12B1u    1.665176    13Ag     1.734871  
       8B2g    1.742771     8B3g    1.742771    13B1u    1.754876  
      14Ag     1.931617    15Ag     2.041330     4B1g    2.041331  
       9B2u    2.060699     9B3u    2.060699    14B1u    2.080307  
       4Au     2.080309    16Ag     2.134202     9B3g    2.139973  
       9B2g    2.139973    15B1u    2.288412    16B1u    2.319980  
      10B2u    4.581834    10B3u    4.581834    17Ag     4.587118  
      18Ag     4.618531     5B1g    4.618600    11B2u    4.629435  
      11B3u    4.629435    10B3g    4.631083    10B2g    4.631083  
      17B1u    4.641950     5Au     4.642020    11B3g    4.719603  
      11B2g    4.719603    18B1u    4.907456    12B3u    5.432677  
      12B2u    5.432677    19Ag     5.434178    20Ag     5.434675  
       6B1g    5.434769    19B1u    5.435177     6Au     5.435269  
      12B2g    5.436771    12B3g    5.436771    13B3u    5.436930  
      13B2u    5.436930    13B2g    5.436975    13B3g    5.436975  
      21Ag     5.438923    20B1u    5.438923     7B1g    5.439118  
       7Au     5.439118    21B1u    5.447589    22Ag    32.791935  
      22B1u   33.035102    23Ag   110.562508    23B1u  110.639992  

    Final Occupation by Irrep:
             Ag   B1g   B2g   B3g    Au   B1u   B2u   B3u 
    DOCC [     5,    1,    2,    2,    1,    4,    2,    2 ]

  @DF-RKS Final Energy:  -293.41953593859546

   => Energetics <=

    Nuclear Repulsion Energy =             74.9474955864682499
    One-Electron Energy =                -671.3979711028955535
    Two-Electron Energy =                 319.0048226662290745
    DFT Exchange-Correlation Energy =     -15.9738395783972109
    Empirical Dispersion Energy =          -0.0000435100000000
    VV10 Nonlocal Energy =                  0.0000000000000000
    Total Energy =                       -293.4195359385954589

Computation Completed


Properties will be evaluated at   0.000000,   0.000000,   0.000000 [a0]

Properties computed using the SCF density matrix

  Nuclear Dipole Moment: [e a0]
     X:     0.0000      Y:     0.0000      Z:     0.0000

  Electronic Dipole Moment: [e a0]
     X:     0.0000      Y:     0.0000      Z:     0.0000

  Dipole Moment: [e a0]
     X:     0.0000      Y:     0.0000      Z:     0.0000     Total:     0.0000

  Dipole Moment: [D]
     X:     0.0000      Y:     0.0000      Z:     0.0000     Total:     0.0000


*** tstop() called on bp1-compute00145.data.bp.acrc.priv at Fri Oct 29 08:39:19 2021
Module time:
	user time   =      42.55 seconds =       0.71 minutes
	system time =       1.60 seconds =       0.03 minutes
	total time  =          3 seconds =       0.05 minutes
Total time:
	user time   =     931.44 seconds =      15.52 minutes
	system time =      38.53 seconds =       0.64 minutes
	total time  =        119 seconds =       1.98 minutes

*** tstart() called on bp1-compute00145.data.bp.acrc.priv
*** at Fri Oct 29 08:39:19 2021


         ------------------------------------------------------------
                                   SCF GRAD                          
                          Rob Parrish, Justin Turney,                
                       Andy Simmonett, and Alex Sokolov              
         ------------------------------------------------------------

  ==> Geometry <==

    Molecular point group: d2h
    Full point group: D_inf_h

    Geometry (in Angstrom), charge = 0, multiplicity = 1:

       Center              X                  Y                   Z               Mass       
    ------------   -----------------  -----------------  -----------------  -----------------
         AG           0.000000000000     0.000000000000     1.274445340415   106.905091600000
         AG           0.000000000000     0.000000000000    -1.274445340415   106.905091600000

  Nuclear repulsion =   74.947495586468250

  ==> Basis Set <==

  Basis Set: DEF2-TZVPPD
    Blend: DEF2-TZVPPD
    Number of shells: 32
    Number of basis function: 112
    Number of Cartesian functions: 142
    Spherical Harmonics?: true
    Max angular momentum: 4

  Core potential: DEF2-TZVPPD
    Number of shells: 8
    Number of ECP primitives: 28
    Number of ECP core electrons: 56
    Max angular momentum: 3

  ==> DFJKGrad: Density-Fitted SCF Gradients <==

    Gradient:                    1
    J tasked:                  Yes
    K tasked:                  Yes
    wK tasked:                  No
    OpenMP threads:             24
    Integrals threads:          24
    Memory [MiB]:           102996
    Schwarz Cutoff:          0E+00
    Fitting Condition:       1E-10

   => Auxiliary Basis Set <=

  Basis Set: (DEF2-TZVPPD AUX)
    Blend: DEF2-TZVPP-JKFIT
    Number of shells: 98
    Number of basis function: 510
    Number of Cartesian functions: 768
    Spherical Harmonics?: true
    Max angular momentum: 6

  ==> DFT Potential <==

   => Composite Functional: MN15-D3BJ <= 

   MN15 Hybrid Meta-GGA Exchange-Correlation Functional

    H. S. Yu, X. He, S. L. Li, and D. G. Truhlar, Chem. Sci. 7, 5032-5051, 2016


    Deriv               =              1
    GGA                 =           TRUE
    Meta                =           TRUE

    Exchange Hybrid     =           TRUE
    MP2 Hybrid          =          FALSE

   => Exchange Functionals <=

    1.0000   XC_HYB_MGGA_X_MN15

   => Exact (HF) Exchange <=

    0.4400               HF 

   => Correlation Functionals <=

    1.0000   XC_MGGA_C_MN15

   => Molecular Quadrature <=

    Radial Scheme          =       TREUTLER
    Pruning Scheme         =           FLAT
    Nuclear Scheme         =       TREUTLER

    BS radius alpha        =              1
    Pruning alpha          =              1
    Radial Points          =             75
    Spherical Points       =            302
    Total Points           =          44842
    Total Blocks           =            422
    Max Points             =            255
    Max Functions          =            110


  -Total Gradient:
     Atom            X                  Y                   Z
    ------   -----------------  -----------------  -----------------
       1        0.000000000000     0.000000000000    -0.149708343407
       2        0.000000000000     0.000000000000     0.149708343407


*** tstop() called on bp1-compute00145.data.bp.acrc.priv at Fri Oct 29 08:39:24 2021
Module time:
	user time   =      38.28 seconds =       0.64 minutes
	system time =       2.40 seconds =       0.04 minutes
	total time  =          5 seconds =       0.08 minutes
Total time:
	user time   =     971.17 seconds =      16.19 minutes
	system time =      41.01 seconds =       0.68 minutes
	total time  =        124 seconds =       2.07 minutes


  ==> Adding ECP gradient terms (computed numerically) <==

  -ECP Gradient:
     Atom            X                  Y                   Z
    ------   -----------------  -----------------  -----------------
       1       -0.000000000000     0.000000000000     0.149688252738
       2       -0.000000000000     0.000000000000    -0.149688252738


  -Total Gradient:
     Atom            X                  Y                   Z
    ------   -----------------  -----------------  -----------------
       1       -0.000000000000     0.000000000000    -0.000020090669
       2       -0.000000000000     0.000000000000     0.000020090669


			-----------------------------------------
			 OPTKING 2.0: for geometry optimizations 
			  - R.A. King,  Bethel University        
			-----------------------------------------
	At level 1: Red. Int., RFO, no backsteps, dynamic trust

	Previous internal coordinate definitions found.
	---Fragment 1 Geometry and Gradient---
	 AG          0.0000000000        0.0000000000        2.4083526552
	 AG          0.0000000000        0.0000000000       -2.4083526552
	            -0.0000000000        0.0000000000       -0.0000200907
	            -0.0000000000        0.0000000000        0.0000200907

	---Fragment 1 Intrafragment Coordinates---
	 - Coordinate -           - BOHR/RAD -       - ANG/DEG -
	 R(1,2)           =         4.816705	       2.548891

	Current energy   :      -293.4195359386

	Energy change for the previous step:
		Projected    :         0.0000107330
		Actual       :        -0.0000006880

	Performing BFGS update.
	Previous computed or guess Hessian on step 1.
	Steps to be used in Hessian update: 2 1
	Taking RFO optimization step.
	Going to follow RFO solution 1.
	Using RFO vector 1.
	Norm of target step-size    0.00026
	Projected energy change by RFO approximation:         0.0000000277

	Back-transformation to cartesian coordinates...
	Successfully converged to displaced geometry.

	--- Internal Coordinate Step in ANG or DEG, aJ/ANG or AJ/DEG ---
	 ---------------------------------------------------------------------------
	   Coordinate                Previous        Force       Change         New 
	   ----------                --------       ------       ------       ------
	    1 R(1,2)          =      2.548891     0.000166     0.000136     2.549026
	 ---------------------------------------------------------------------------
	Successfully symmetrized geometry.

  ==> Convergence Check <==

  Measures of convergence in internal coordinates in au.
  Criteria marked as inactive (o), active & met (*), and active & unmet ( ).
  ---------------------------------------------------------------------------------------------
   Step     Total Energy     Delta E     MAX Force     RMS Force      MAX Disp      RMS Disp   
  ---------------------------------------------------------------------------------------------
    Convergence Criteria    1.00e-06 *    3.00e-04 *             o    1.20e-03 *             o
  ---------------------------------------------------------------------------------------------
      3    -293.41953594   -6.88e-07 *    2.01e-05 *    2.01e-05 o    2.56e-04 *    2.56e-04 o  ~
  ---------------------------------------------------------------------------------------------


  **** Optimization is complete! (in 3 steps) ****

  ==> Optimization Summary <==

  Measures of convergence in internal coordinates in au.
  --------------------------------------------------------------------------------------------------------------- ~
   Step         Total Energy             Delta E       MAX Force       RMS Force        MAX Disp        RMS Disp  ~
  --------------------------------------------------------------------------------------------------------------- ~
      1    -293.419451306140   -293.419451306140      0.00376132      0.00376132      0.04266487      0.04266487  ~
      2    -293.419535250579     -0.000083944438      0.00039797      0.00039797      0.00504823      0.00504823  ~
      3    -293.419535938595     -0.000000688017      0.00002009      0.00002009      0.00025622      0.00025622  ~
  --------------------------------------------------------------------------------------------------------------- ~

	Writing optimization data to binary file.
	Final energy is   -293.4195359385955
	Final (previous) structure:
	Cartesian Geometry (in Angstrom)
	   AG     0.0000000000   0.0000000000   1.2744453354
	   AG     0.0000000000   0.0000000000  -1.2744453354
	Saving final (previous) structure.
			--------------------------
			 OPTKING Finished Execution 
			--------------------------

    Final optimized geometry and variables:
    Molecular point group: d2h
    Full point group: D_inf_h

    Geometry (in Angstrom), charge = 0, multiplicity = 1:

    AG           0.000000000000     0.000000000000     1.274445340415
    AG           0.000000000000     0.000000000000    -1.274445340415

	Removing binary optimization data file.
	Cleaning optimization helper files.
gradient() will perform analytic gradient computation.

*** tstart() called on bp1-compute00145.data.bp.acrc.priv
*** at Fri Oct 29 08:40:12 2021

   => Loading Basis Set <=

    Name: DEF2-TZVPPD
    Role: ORBITAL
    Keyword: BASIS
    atoms 1-2 entry AG         line  2174 (ECP: line  3646) file /work/zw18965/.conda/envs/p4env/share/psi4/basis/def2-tzvppd.gbs 

    !!!  WARNING: ECP capability is in beta. Please check occupations closely.  !!!


         ---------------------------------------------------------
                                   SCF
               by Justin Turney, Rob Parrish, Andy Simmonett
                          and Daniel G. A. Smith
                              RKS Reference
                       24 Threads, 137329 MiB Core
         ---------------------------------------------------------

  ==> Geometry <==

    Molecular point group: d2h
    Full point group: D_inf_h

    Geometry (in Angstrom), charge = 0, multiplicity = 1:

       Center              X                  Y                   Z               Mass       
    ------------   -----------------  -----------------  -----------------  -----------------
         AG           0.000000000000     0.000000000000     1.274445340415   106.905091600000
         AG           0.000000000000     0.000000000000    -1.274445340415   106.905091600000

  Running in d2h symmetry.

  Rotational constants: A = ************  B =      0.04854  C =      0.04854 [cm^-1]
  Rotational constants: A = ************  B =   1455.27941  C =   1455.27941 [MHz]
  Nuclear repulsion =   74.947495586468236

  Charge       = 0
  Multiplicity = 1
  Electrons    = 38
  Nalpha       = 19
  Nbeta        = 19

  ==> Algorithm <==

  SCF Algorithm Type is DF.
  DIIS enabled.
  MOM disabled.
  Fractional occupation disabled.
  Guess Type is SAD.
  Energy threshold   = 1.00e-08
  Density threshold  = 1.00e-08
  Integral threshold = 0.00e+00

  ==> Primary Basis <==

  Basis Set: DEF2-TZVPPD
    Blend: DEF2-TZVPPD
    Number of shells: 32
    Number of basis function: 112
    Number of Cartesian functions: 142
    Spherical Harmonics?: true
    Max angular momentum: 4

  Core potential: DEF2-TZVPPD
    Number of shells: 8
    Number of ECP primitives: 28
    Number of ECP core electrons: 56
    Max angular momentum: 3

  ==> DFT Potential <==

   => Composite Functional: MN15-D3BJ <= 

   MN15 Hybrid Meta-GGA Exchange-Correlation Functional

    H. S. Yu, X. He, S. L. Li, and D. G. Truhlar, Chem. Sci. 7, 5032-5051, 2016


    Deriv               =              1
    GGA                 =           TRUE
    Meta                =           TRUE

    Exchange Hybrid     =           TRUE
    MP2 Hybrid          =          FALSE

   => Exchange Functionals <=

    1.0000   XC_HYB_MGGA_X_MN15

   => Exact (HF) Exchange <=

    0.4400               HF 

   => Correlation Functionals <=

    1.0000   XC_MGGA_C_MN15

   => Molecular Quadrature <=

    Radial Scheme          =       TREUTLER
    Pruning Scheme         =           FLAT
    Nuclear Scheme         =       TREUTLER

    BS radius alpha        =              1
    Pruning alpha          =              1
    Radial Points          =             75
    Spherical Points       =            302
    Total Points           =          44842
    Total Blocks           =            422
    Max Points             =            255
    Max Functions          =            110

   => MN15-D3(BJ): Empirical Dispersion <=

    Grimme's -D3 (BJ-damping) Dispersion Correction
    Grimme S.; Ehrlich S.; Goerigk L. (2011), J. Comput. Chem., 32: 1456
    Parametrisation from:    L. Goerigk, A. Hansen, C. Bauer, S. Ehrlich, A. Najibi, S. Grimme, Phys. Chem. Chem. Phys. 19, 32184-32215, 2017

        s6 =       1.000000
        s8 =       2.097100
        a1 =       0.786200
        a2 =       7.592300

   => Loading Basis Set <=

    Name: (DEF2-TZVPPD AUX)
    Role: JKFIT
    Keyword: DF_BASIS_SCF
    atoms 1-2 entry AG         line  4369 file /work/zw18965/.conda/envs/p4env/share/psi4/basis/def2-tzvpp-jkfit.gbs 

  ==> Pre-Iterations <==

   -------------------------------------------------------
    Irrep   Nso     Nmo     Nalpha   Nbeta   Ndocc  Nsocc
   -------------------------------------------------------
     Ag        23      23       0       0       0       0
     B1g        7       7       0       0       0       0
     B2g       13      13       0       0       0       0
     B3g       13      13       0       0       0       0
     Au         7       7       0       0       0       0
     B1u       23      23       0       0       0       0
     B2u       13      13       0       0       0       0
     B3u       13      13       0       0       0       0
   -------------------------------------------------------
    Total     112     112      19      19      19       0
   -------------------------------------------------------

  ==> Integral Setup <==

  DFHelper Memory: AOs need 0.055 GiB; user supplied 100.296 GiB. Using in-core AOs.

  ==> MemDFJK: Density-Fitted J/K Matrices <==

    J tasked:                   Yes
    K tasked:                   Yes
    wK tasked:                   No
    OpenMP threads:              24
    Memory [MiB]:            102702
    Algorithm:                 Core
    Schwarz Cutoff:           1E-12
    Mask sparsity (%):       1.0523
    Fitting Condition:        1E-10

   => Auxiliary Basis Set <=

  Basis Set: (DEF2-TZVPPD AUX)
    Blend: DEF2-TZVPP-JKFIT
    Number of shells: 98
    Number of basis function: 510
    Number of Cartesian functions: 768
    Spherical Harmonics?: true
    Max angular momentum: 6

  Cached 100.0% of DFT collocation blocks in 0.287 [GiB].

  Minimum eigenvalue in the overlap matrix is 4.3912621558E-03.
  Using Symmetric Orthogonalization.

  SCF Guess: Superposition of Atomic Densities via on-the-fly atomic UHF.

  ==> Iterations <==

                           Total Energy        Delta E     RMS |[F,P]|

   @DF-RKS iter SAD:  -292.87404008551420   -2.92874e+02   0.00000e+00 
   @DF-RKS iter   1:  -293.39011843301830   -5.16078e-01   7.03998e-03 DIIS
   @DF-RKS iter   2:  -293.38846783886800    1.65059e-03   7.85874e-03 DIIS
   @DF-RKS iter   3:  -293.41941083872985   -3.09430e-02   4.25623e-04 DIIS
   @DF-RKS iter   4:  -293.41950080526220   -8.99665e-05   2.17547e-04 DIIS
   @DF-RKS iter   5:  -293.41952688830503   -2.60830e-05   1.09586e-04 DIIS
   @DF-RKS iter   6:  -293.41953536982788   -8.48152e-06   9.58733e-06 DIIS
   @DF-RKS iter   7:  -293.41953592719636   -5.57368e-07   2.32421e-06 DIIS
   @DF-RKS iter   8:  -293.41953593884273   -1.16464e-08   2.24419e-07 DIIS
   @DF-RKS iter   9:  -293.41953593902451   -1.81785e-10   4.54488e-08 DIIS
   @DF-RKS iter  10:  -293.41953593903077   -6.25278e-12   7.85299e-09 DIIS
  Energy and wave function converged.


  ==> Post-Iterations <==

    Orbital Energies [Eh]
    ---------------------

    Doubly Occupied:                                                      

       1Ag    -3.637038     1B1u   -3.636360     2Ag    -2.291622  
       1B2u   -2.285736     1B3u   -2.285736     1B3g   -2.285046  
       1B2g   -2.285046     2B1u   -2.283892     3Ag    -0.401662  
       2B2u   -0.385401     2B3u   -0.385401     4Ag    -0.365285  
       1B1g   -0.365270     3B1u   -0.357196     1Au    -0.357181  
       2B3g   -0.344774     2B2g   -0.344774     4B1u   -0.337635  
       5Ag    -0.237368  

    Virtual:                                                              

       5B1u   -0.072660     3B2u   -0.001953     3B3u   -0.001953  
       6Ag     0.032657     3B3g    0.075677     3B2g    0.075677  
       6B1u    0.136403     7Ag     0.143648     7B1u    0.199184  
       8Ag     0.225706     4B2u    0.231332     4B3u    0.231332  
       4B3g    0.283638     4B2g    0.283638     2B1g    0.411808  
       9Ag     0.411814     8B1u    0.411894     5B2u    0.454528  
       5B3u    0.454528     9B1u    0.507185     2Au     0.507188  
      10Ag     0.622392     5B3g    0.628146     5B2g    0.628146  
      10B1u    0.754960    11Ag     1.416416     6B2u    1.541814  
       6B3u    1.541814    12Ag     1.586474     3B1g    1.586523  
       7B2u    1.602385     7B3u    1.602385     6B2g    1.604419  
       6B3g    1.604419    11B1u    1.614393     3Au     1.614442  
       7B3g    1.638193     7B2g    1.638193     8B2u    1.646104  
       8B3u    1.646104    12B1u    1.665176    13Ag     1.734871  
       8B3g    1.742771     8B2g    1.742771    13B1u    1.754876  
      14Ag     1.931617    15Ag     2.041330     4B1g    2.041331  
       9B2u    2.060699     9B3u    2.060699    14B1u    2.080307  
       4Au     2.080309    16Ag     2.134203     9B3g    2.139973  
       9B2g    2.139973    15B1u    2.288412    16B1u    2.319980  
      10B2u    4.581834    10B3u    4.581834    17Ag     4.587118  
      18Ag     4.618531     5B1g    4.618600    11B3u    4.629435  
      11B2u    4.629435    10B2g    4.631083    10B3g    4.631083  
      17B1u    4.641950     5Au     4.642020    11B3g    4.719603  
      11B2g    4.719603    18B1u    4.907456    12B2u    5.432677  
      12B3u    5.432677    19Ag     5.434178    20Ag     5.434675  
       6B1g    5.434769    19B1u    5.435177     6Au     5.435269  
      12B3g    5.436771    12B2g    5.436771    13B2u    5.436930  
      13B3u    5.436930    13B3g    5.436975    13B2g    5.436975  
      21Ag     5.438923    20B1u    5.438923     7B1g    5.439118  
       7Au     5.439118    21B1u    5.447589    22Ag    32.791935  
      22B1u   33.035102    23Ag   110.562508    23B1u  110.639992  

    Final Occupation by Irrep:
             Ag   B1g   B2g   B3g    Au   B1u   B2u   B3u 
    DOCC [     5,    1,    2,    2,    1,    4,    2,    2 ]

  @DF-RKS Final Energy:  -293.41953593903077

   => Energetics <=

    Nuclear Repulsion Energy =             74.9474955864682357
    One-Electron Energy =                -671.3979713668661589
    Two-Electron Energy =                 319.0048229277876999
    DFT Exchange-Correlation Energy =     -15.9738395764205166
    Empirical Dispersion Energy =          -0.0000435100000000
    VV10 Nonlocal Energy =                  0.0000000000000000
    Total Energy =                       -293.4195359390307658

Computation Completed


Properties will be evaluated at   0.000000,   0.000000,   0.000000 [a0]

Properties computed using the SCF density matrix

  Nuclear Dipole Moment: [e a0]
     X:     0.0000      Y:     0.0000      Z:     0.0000

  Electronic Dipole Moment: [e a0]
     X:     0.0000      Y:     0.0000      Z:     0.0000

  Dipole Moment: [e a0]
     X:     0.0000      Y:     0.0000      Z:     0.0000     Total:     0.0000

  Dipole Moment: [D]
     X:     0.0000      Y:     0.0000      Z:     0.0000     Total:     0.0000


*** tstop() called on bp1-compute00145.data.bp.acrc.priv at Fri Oct 29 08:40:17 2021
Module time:
	user time   =      56.28 seconds =       0.94 minutes
	system time =       2.06 seconds =       0.03 minutes
	total time  =          5 seconds =       0.08 minutes
Total time:
	user time   =    1380.02 seconds =      23.00 minutes
	system time =      55.54 seconds =       0.93 minutes
	total time  =        177 seconds =       2.95 minutes

*** tstart() called on bp1-compute00145.data.bp.acrc.priv
*** at Fri Oct 29 08:40:17 2021


         ------------------------------------------------------------
                                   SCF GRAD                          
                          Rob Parrish, Justin Turney,                
                       Andy Simmonett, and Alex Sokolov              
         ------------------------------------------------------------

  ==> Geometry <==

    Molecular point group: d2h
    Full point group: D_inf_h

    Geometry (in Angstrom), charge = 0, multiplicity = 1:

       Center              X                  Y                   Z               Mass       
    ------------   -----------------  -----------------  -----------------  -----------------
         AG           0.000000000000     0.000000000000     1.274445340415   106.905091600000
         AG           0.000000000000     0.000000000000    -1.274445340415   106.905091600000

  Nuclear repulsion =   74.947495586468236

  ==> Basis Set <==

  Basis Set: DEF2-TZVPPD
    Blend: DEF2-TZVPPD
    Number of shells: 32
    Number of basis function: 112
    Number of Cartesian functions: 142
    Spherical Harmonics?: true
    Max angular momentum: 4

  Core potential: DEF2-TZVPPD
    Number of shells: 8
    Number of ECP primitives: 28
    Number of ECP core electrons: 56
    Max angular momentum: 3

  ==> DFJKGrad: Density-Fitted SCF Gradients <==

    Gradient:                    1
    J tasked:                  Yes
    K tasked:                  Yes
    wK tasked:                  No
    OpenMP threads:             24
    Integrals threads:          24
    Memory [MiB]:           102996
    Schwarz Cutoff:          0E+00
    Fitting Condition:       1E-10

   => Auxiliary Basis Set <=

  Basis Set: (DEF2-TZVPPD AUX)
    Blend: DEF2-TZVPP-JKFIT
    Number of shells: 98
    Number of basis function: 510
    Number of Cartesian functions: 768
    Spherical Harmonics?: true
    Max angular momentum: 6

  ==> DFT Potential <==

   => Composite Functional: MN15-D3BJ <= 

   MN15 Hybrid Meta-GGA Exchange-Correlation Functional

    H. S. Yu, X. He, S. L. Li, and D. G. Truhlar, Chem. Sci. 7, 5032-5051, 2016


    Deriv               =              1
    GGA                 =           TRUE
    Meta                =           TRUE

    Exchange Hybrid     =           TRUE
    MP2 Hybrid          =          FALSE

   => Exchange Functionals <=

    1.0000   XC_HYB_MGGA_X_MN15

   => Exact (HF) Exchange <=

    0.4400               HF 

   => Correlation Functionals <=

    1.0000   XC_MGGA_C_MN15

   => Molecular Quadrature <=

    Radial Scheme          =       TREUTLER
    Pruning Scheme         =           FLAT
    Nuclear Scheme         =       TREUTLER

    BS radius alpha        =              1
    Pruning alpha          =              1
    Radial Points          =             75
    Spherical Points       =            302
    Total Points           =          44842
    Total Blocks           =            422
    Max Points             =            255
    Max Functions          =            110


  -Total Gradient:
     Atom            X                  Y                   Z
    ------   -----------------  -----------------  -----------------
       1        0.000000000000     0.000000000000    -0.149708337448
       2        0.000000000000     0.000000000000     0.149708337448


*** tstop() called on bp1-compute00145.data.bp.acrc.priv at Fri Oct 29 08:40:22 2021
Module time:
	user time   =      37.97 seconds =       0.63 minutes
	system time =       2.46 seconds =       0.04 minutes
	total time  =          5 seconds =       0.08 minutes
Total time:
	user time   =    1419.55 seconds =      23.66 minutes
	system time =      58.10 seconds =       0.97 minutes
	total time  =        182 seconds =       3.03 minutes


  ==> Adding ECP gradient terms (computed numerically) <==

  -ECP Gradient:
     Atom            X                  Y                   Z
    ------   -----------------  -----------------  -----------------
       1        0.000000000000     0.000000000000     0.149688256001
       2        0.000000000000     0.000000000000    -0.149688256001


  -Total Gradient:
     Atom            X                  Y                   Z
    ------   -----------------  -----------------  -----------------
       1        0.000000000000     0.000000000000    -0.000020081447
       2        0.000000000000     0.000000000000     0.000020081447


  Based on options and gradient (rms=1.16E-05), recommend projecting translations and projecting rotations.
hessian() will perform frequency computation by finite difference of analytic gradients.

         ----------------------------------------------------------
                                   FINDIF
                     R. A. King and Jonathon Misiewicz
         ---------------------------------------------------------

  Using finite-differences of gradients to determine vibrational frequencies and 
  normal modes.  Resulting frequencies are only valid at stationary points.
    Generating geometries for use with 3-point formula.
    Displacement size will be 5.00e-03.
    Number of atoms is 2.
    Number of irreps is 8.
    Number of SALCs is 1.
    Translations projected? 1. Rotations projected? 1.
    Index of SALCs per irrep:
     1 :  0 
     2 : 
     3 : 
     4 : 
     5 : 
     6 : 
     7 : 
     8 : 
    Number of SALCs per irrep:
     Irrep 1: 1
     Irrep 2: 0
     Irrep 3: 0
     Irrep 4: 0
     Irrep 5: 0
     Irrep 6: 0
     Irrep 7: 0
     Irrep 8: 0
    Number of geometries (including reference) is 3.
    Number of displacements per irrep:
      Irrep 1: 2
      Irrep 2: 0
      Irrep 3: 0
      Irrep 4: 0
      Irrep 5: 0
      Irrep 6: 0
      Irrep 7: 0
      Irrep 8: 0

  //>>>>>>>>>>>>>>>>>>>>>>>>>>>>>>>>>>>//
  //    Loading displacement 1 of 3    //
  //<<<<<<<<<<<<<<<<<<<<<<<<<<<<<<<<<<<//
gradient() will perform analytic gradient computation.

*** tstart() called on bp1-compute00145.data.bp.acrc.priv
*** at Fri Oct 29 08:41:09 2021

   => Loading Basis Set <=

    Name: DEF2-TZVPPD
    Role: ORBITAL
    Keyword: BASIS
    atoms 1-2 entry AG         line  2174 (ECP: line  3646) file /work/zw18965/.conda/envs/p4env/share/psi4/basis/def2-tzvppd.gbs 

    !!!  WARNING: ECP capability is in beta. Please check occupations closely.  !!!


         ---------------------------------------------------------
                                   SCF
               by Justin Turney, Rob Parrish, Andy Simmonett
                          and Daniel G. A. Smith
                              RKS Reference
                       24 Threads, 137329 MiB Core
         ---------------------------------------------------------

  ==> Geometry <==

    Molecular point group: d2h
    Full point group: D_inf_h

    Geometry (in Angstrom), charge = 0, multiplicity = 1:

       Center              X                  Y                   Z               Mass       
    ------------   -----------------  -----------------  -----------------  -----------------
         AG           0.000000000000     0.000000000000     1.274445340415   106.905091600000
         AG           0.000000000000     0.000000000000    -1.274445340415   106.905091600000

  Running in d2h symmetry.

  Rotational constants: A = ************  B =      0.04854  C =      0.04854 [cm^-1]
  Rotational constants: A = ************  B =   1455.27941  C =   1455.27941 [MHz]
  Nuclear repulsion =   74.947495586468236

  Charge       = 0
  Multiplicity = 1
  Electrons    = 38
  Nalpha       = 19
  Nbeta        = 19

  ==> Algorithm <==

  SCF Algorithm Type is DF.
  DIIS enabled.
  MOM disabled.
  Fractional occupation disabled.
  Guess Type is SAD.
  Energy threshold   = 1.00e-08
  Density threshold  = 1.00e-08
  Integral threshold = 0.00e+00

  ==> Primary Basis <==

  Basis Set: DEF2-TZVPPD
    Blend: DEF2-TZVPPD
    Number of shells: 32
    Number of basis function: 112
    Number of Cartesian functions: 142
    Spherical Harmonics?: true
    Max angular momentum: 4

  Core potential: DEF2-TZVPPD
    Number of shells: 8
    Number of ECP primitives: 28
    Number of ECP core electrons: 56
    Max angular momentum: 3

  ==> DFT Potential <==

   => Composite Functional: MN15-D3BJ <= 

   MN15 Hybrid Meta-GGA Exchange-Correlation Functional

    H. S. Yu, X. He, S. L. Li, and D. G. Truhlar, Chem. Sci. 7, 5032-5051, 2016


    Deriv               =              1
    GGA                 =           TRUE
    Meta                =           TRUE

    Exchange Hybrid     =           TRUE
    MP2 Hybrid          =          FALSE
[...]
    MP2 Hybrid          =          FALSE

   => Exchange Functionals <=

    1.0000   XC_HYB_MGGA_X_MN15

   => Exact (HF) Exchange <=

    0.4400               HF 

   => Correlation Functionals <=

    1.0000   XC_MGGA_C_MN15

   => Molecular Quadrature <=

    Radial Scheme          =       TREUTLER
    Pruning Scheme         =           FLAT
    Nuclear Scheme         =       TREUTLER

    BS radius alpha        =              1
    Pruning alpha          =              1
    Radial Points          =             75
    Spherical Points       =            302
    Total Points           =          44842
    Total Blocks           =            422
    Max Points             =            255
    Max Functions          =            110

   => MN15-D3(BJ): Empirical Dispersion <=

    Grimme's -D3 (BJ-damping) Dispersion Correction
    Grimme S.; Ehrlich S.; Goerigk L. (2011), J. Comput. Chem., 32: 1456
    Parametrisation from:    L. Goerigk, A. Hansen, C. Bauer, S. Ehrlich, A. Najibi, S. Grimme, Phys. Chem. Chem. Phys. 19, 32184-32215, 2017

        s6 =       1.000000
        s8 =       2.097100
        a1 =       0.786200
        a2 =       7.592300

   => Loading Basis Set <=

    Name: (DEF2-TZVPPD AUX)
    Role: JKFIT
    Keyword: DF_BASIS_SCF
    atoms 1-2 entry AG         line  4369 file /work/zw18965/.conda/envs/p4env/share/psi4/basis/def2-tzvpp-jkfit.gbs 

  ==> Pre-Iterations <==

   -------------------------------------------------------
    Irrep   Nso     Nmo     Nalpha   Nbeta   Ndocc  Nsocc
   -------------------------------------------------------
     Ag        23      23       0       0       0       0
     B1g        7       7       0       0       0       0
     B2g       13      13       0       0       0       0
     B3g       13      13       0       0       0       0
     Au         7       7       0       0       0       0
     B1u       23      23       0       0       0       0
     B2u       13      13       0       0       0       0
     B3u       13      13       0       0       0       0
   -------------------------------------------------------
    Total     112     112      19      19      19       0
   -------------------------------------------------------

  ==> Integral Setup <==

  DFHelper Memory: AOs need 0.055 GiB; user supplied 100.296 GiB. Using in-core AOs.

  ==> MemDFJK: Density-Fitted J/K Matrices <==

    J tasked:                   Yes
    K tasked:                   Yes
    wK tasked:                   No
    OpenMP threads:              24
    Memory [MiB]:            102702
    Algorithm:                 Core
    Schwarz Cutoff:           1E-12
    Mask sparsity (%):       1.0523
    Fitting Condition:        1E-10

   => Auxiliary Basis Set <=

  Basis Set: (DEF2-TZVPPD AUX)
    Blend: DEF2-TZVPP-JKFIT
    Number of shells: 98
    Number of basis function: 510
    Number of Cartesian functions: 768
    Spherical Harmonics?: true
    Max angular momentum: 6

  Cached 100.0% of DFT collocation blocks in 0.287 [GiB].

  Minimum eigenvalue in the overlap matrix is 4.3942906234E-03.
  Using Symmetric Orthogonalization.

  SCF Guess: Superposition of Atomic Densities via on-the-fly atomic UHF.

  ==> Iterations <==

                           Total Energy        Delta E     RMS |[F,P]|

   @DF-RKS iter SAD:  -292.89817680740259   -2.92898e+02   0.00000e+00 
   @DF-RKS iter   1:  -293.39093662620320   -4.92760e-01   7.01210e-03 DIIS
   @DF-RKS iter   2:  -293.38901322732590    1.92340e-03   7.81564e-03 DIIS
   @DF-RKS iter   3:  -293.41939808941294   -3.03849e-02   4.53633e-04 DIIS
   @DF-RKS iter   4:  -293.41949556056505   -9.74712e-05   2.39094e-04 DIIS
   @DF-RKS iter   5:  -293.41952693313016   -3.13726e-05   1.05543e-04 DIIS
   @DF-RKS iter   6:  -293.41953532428829   -8.39116e-06   9.75794e-06 DIIS
   @DF-RKS iter   7:  -293.41953587680803   -5.52520e-07   2.24965e-06 DIIS
   @DF-RKS iter   8:  -293.41953588742882   -1.06208e-08   2.28273e-07 DIIS
   @DF-RKS iter   9:  -293.41953588762419   -1.95371e-10   4.50183e-08 DIIS
   @DF-RKS iter  10:  -293.41953588763022   -6.02540e-12   5.82759e-09 DIIS
  Energy and wave function converged.


  ==> Post-Iterations <==

    Orbital Energies [Eh]
    ---------------------

    Doubly Occupied:                                                      

       1Ag    -3.637034     1B1u   -3.636358     2Ag    -2.291611  
       1B3u   -2.285734     1B2u   -2.285734     1B2g   -2.285045  
       1B3g   -2.285045     2B1u   -2.283892     3Ag    -0.401633  
       2B3u   -0.385381     2B2u   -0.385381     4Ag    -0.365281  
       1B1g   -0.365265     3B1u   -0.357198     1Au    -0.357183  
       2B2g   -0.344785     2B3g   -0.344785     4B1u   -0.337649  
       5Ag    -0.237358  

    Virtual:                                                              

       5B1u   -0.072671     3B3u   -0.001951     3B2u   -0.001951  
       6Ag     0.032648     3B2g    0.075666     3B3g    0.075666  
       6B1u    0.136390     7Ag     0.143645     7B1u    0.199184  
       8Ag     0.225699     4B3u    0.231337     4B2u    0.231337  
       4B2g    0.283626     4B3g    0.283626     2B1g    0.411816  
       9Ag     0.411822     8B1u    0.411831     5B3u    0.454493  
       5B2u    0.454493     9B1u    0.507172     2Au     0.507174  
      10Ag     0.622366     5B2g    0.628130     5B3g    0.628130  
      10B1u    0.754924    11Ag     1.416642     6B3u    1.541903  
       6B2u    1.541903    12Ag     1.586498     3B1g    1.586547  
       7B3u    1.602387     7B2u    1.602387     6B2g    1.604418  
       6B3g    1.604418    11B1u    1.614371     3Au     1.614420  
       7B2g    1.638140     7B3g    1.638140     8B3u    1.646103  
       8B2u    1.646103    12B1u    1.665170    13Ag     1.734878  
       8B2g    1.742711     8B3g    1.742711    13B1u    1.754746  
      14Ag     1.931515    15Ag     2.041334     4B1g    2.041334  
       9B3u    2.060754     9B2u    2.060754    14B1u    2.080302  
       4Au     2.080304    16Ag     2.134285     9B2g    2.139928  
       9B3g    2.139928    15B1u    2.288300    16B1u    2.319802  
      10B3u    4.581900    10B2u    4.581900    17Ag     4.587105  
      18Ag     4.618553     5B1g    4.618623    11B3u    4.629438  
      11B2u    4.629438    10B2g    4.631083    10B3g    4.631083  
      17B1u    4.641931     5Au     4.642001    11B2g    4.719502  
      11B3g    4.719502    18B1u    4.907263    12B3u    5.432685  
      12B2u    5.432685    19Ag     5.434181    20Ag     5.434679  
       6B1g    5.434774    19B1u    5.435180     6Au     5.435273  
      12B2g    5.436769    12B3g    5.436769    13B3u    5.436932  
      13B2u    5.436932    13B2g    5.436977    13B3g    5.436977  
      21Ag     5.438923    20B1u    5.438923     7B1g    5.439118  
       7Au     5.439118    21B1u    5.447557    22Ag    32.791877  
      22B1u   33.035037    23Ag   110.562492    23B1u  110.639973  

    Final Occupation by Irrep:
             Ag   B1g   B2g   B3g    Au   B1u   B2u   B3u 
    DOCC [     5,    1,    2,    2,    1,    4,    2,    2 ]

  @DF-RKS Final Energy:  -293.41953588763022

   => Energetics <=

    Nuclear Repulsion Energy =             74.9368558419998010
    One-Electron Energy =                -671.3768609741898672
    Two-Electron Energy =                 318.9943246971244548
    DFT Exchange-Correlation Energy =     -15.9738119425645664
    Empirical Dispersion Energy =          -0.0000435100000000
    VV10 Nonlocal Energy =                  0.0000000000000000
    Total Energy =                       -293.4195358876302180

Computation Completed


Properties will be evaluated at   0.000000,   0.000000,   0.000000 [a0]

Properties computed using the SCF density matrix

  Nuclear Dipole Moment: [e a0]
     X:     0.0000      Y:     0.0000      Z:    -0.0000

  Electronic Dipole Moment: [e a0]
     X:     0.0000      Y:     0.0000      Z:     0.0000

  Dipole Moment: [e a0]
     X:     0.0000      Y:     0.0000      Z:    -0.0000     Total:     0.0000

  Dipole Moment: [D]
     X:     0.0000      Y:     0.0000      Z:    -0.0000     Total:     0.0000


*** tstop() called on bp1-compute00145.data.bp.acrc.priv at Fri Oct 29 08:43:10 2021
Module time:
	user time   =      55.31 seconds =       0.92 minutes
	system time =       2.18 seconds =       0.04 minutes
	total time  =          5 seconds =       0.08 minutes
Total time:
	user time   =    2725.55 seconds =      45.43 minutes
	system time =     107.90 seconds =       1.80 minutes
	total time  =        350 seconds =       5.83 minutes

*** tstart() called on bp1-compute00145.data.bp.acrc.priv
*** at Fri Oct 29 08:43:10 2021


         ------------------------------------------------------------
                                   SCF GRAD                          
                          Rob Parrish, Justin Turney,                
                       Andy Simmonett, and Alex Sokolov              
         ------------------------------------------------------------

  ==> Geometry <==

    Molecular point group: d2h
    Full point group: D_inf_h

    Geometry (in Angstrom), charge = 0, multiplicity = 1:

       Center              X                  Y                   Z               Mass       
    ------------   -----------------  -----------------  -----------------  -----------------
         AG           0.000000000000     0.000000000000     1.274626289730   106.905091600000
         AG           0.000000000000     0.000000000000    -1.274626289730   106.905091600000

  Nuclear repulsion =   74.936855841999801

  ==> Basis Set <==

  Basis Set: DEF2-TZVPPD
    Blend: DEF2-TZVPPD
    Number of shells: 32
    Number of basis function: 112
    Number of Cartesian functions: 142
    Spherical Harmonics?: true
    Max angular momentum: 4

  Core potential: DEF2-TZVPPD
    Number of shells: 8
    Number of ECP primitives: 28
    Number of ECP core electrons: 56
    Max angular momentum: 3

  ==> DFJKGrad: Density-Fitted SCF Gradients <==

    Gradient:                    1
    J tasked:                  Yes
    K tasked:                  Yes
    wK tasked:                  No
    OpenMP threads:             24
    Integrals threads:          24
    Memory [MiB]:           102996
    Schwarz Cutoff:          0E+00
    Fitting Condition:       1E-10

   => Auxiliary Basis Set <=

  Basis Set: (DEF2-TZVPPD AUX)
    Blend: DEF2-TZVPP-JKFIT
    Number of shells: 98
    Number of basis function: 510
    Number of Cartesian functions: 768
    Spherical Harmonics?: true
    Max angular momentum: 6

  ==> DFT Potential <==

   => Composite Functional: MN15-D3BJ <= 

   MN15 Hybrid Meta-GGA Exchange-Correlation Functional

    H. S. Yu, X. He, S. L. Li, and D. G. Truhlar, Chem. Sci. 7, 5032-5051, 2016


    Deriv               =              1
    GGA                 =           TRUE
    Meta                =           TRUE

    Exchange Hybrid     =           TRUE
    MP2 Hybrid          =          FALSE

   => Exchange Functionals <=

    1.0000   XC_HYB_MGGA_X_MN15

   => Exact (HF) Exchange <=

    0.4400               HF 

   => Correlation Functionals <=

    1.0000   XC_MGGA_C_MN15

   => Molecular Quadrature <=

    Radial Scheme          =       TREUTLER
    Pruning Scheme         =           FLAT
    Nuclear Scheme         =       TREUTLER

    BS radius alpha        =              1
    Pruning alpha          =              1
    Radial Points          =             75
    Spherical Points       =            302
    Total Points           =          44842
    Total Blocks           =            422
    Max Points             =            255
    Max Functions          =            110


  -Total Gradient:
     Atom            X                  Y                   Z
    ------   -----------------  -----------------  -----------------
       1        0.000000000000     0.000000000000    -0.149553388231
       2        0.000000000000     0.000000000000     0.149553388231


*** tstop() called on bp1-compute00145.data.bp.acrc.priv at Fri Oct 29 08:43:15 2021
Module time:
	user time   =      38.13 seconds =       0.64 minutes
	system time =       2.61 seconds =       0.04 minutes
	total time  =          5 seconds =       0.08 minutes
Total time:
	user time   =    2765.49 seconds =      46.09 minutes
	system time =     110.62 seconds =       1.84 minutes
	total time  =        355 seconds =       5.92 minutes


  ==> Adding ECP gradient terms (computed numerically) <==

  -ECP Gradient:
     Atom            X                  Y                   Z
    ------   -----------------  -----------------  -----------------
       1        0.000000000000    -0.000000000000     0.149583628497
       2        0.000000000000    -0.000000000000    -0.149583628497


  -Total Gradient:
     Atom            X                  Y                   Z
    ------   -----------------  -----------------  -----------------
       1        0.000000000000    -0.000000000000     0.000030240266
       2        0.000000000000    -0.000000000000    -0.000030240266


         ----------------------------------------------------------
                                   FINDIF
                     R. A. King and Jonathon Misiewicz
         ---------------------------------------------------------

  Computing second-derivative from gradients using projected, 
  symmetry-adapted, cartesian coordinates.

  3 gradients passed in, including the reference geometry.
  Generating complete list of displacements from unique ones.


-------------------------------------------------------------


  ==> Harmonic Vibrational Analysis <==

  non-mass-weighted Hessian:       Symmetric? True   Hermitian? True   Lin Dep Dim?  5 (0)
  projection of translations (True) and rotations (True) removed 5 degrees of freedom (5)
  total projector:                 Symmetric? True   Hermitian? True   Lin Dep Dim?  5 (5)
  mass-weighted Hessian:           Symmetric? True   Hermitian? True   Lin Dep Dim?  5 (0)
  pre-proj  low-frequency mode:    0.0000  [cm^-1]
  pre-proj  low-frequency mode:    0.0000  [cm^-1]
  pre-proj  low-frequency mode:    0.0000  [cm^-1]
  pre-proj  low-frequency mode:    0.0000  [cm^-1]
  pre-proj  low-frequency mode:    0.0000  [cm^-1]
  pre-proj  all modes:['0.0000' '0.0000' '0.0000' '0.0000' '0.0000' '191.6783']
  projected mass-weighted Hessian: Symmetric? True   Hermitian? True   Lin Dep Dim?  5 (5)
  post-proj low-frequency mode:    0.0000  [cm^-1] (TR)
  post-proj low-frequency mode:    0.0000  [cm^-1] (TR)
  post-proj low-frequency mode:    0.0000  [cm^-1] (TR)
  post-proj low-frequency mode:    0.0000  [cm^-1] (TR)
  post-proj low-frequency mode:    0.0000  [cm^-1] (TR)
  post-proj  all modes:['0.0000' '0.0000' '0.0000' '0.0000' '0.0000' '191.6783']

  Vibration                       6           
  Freq [cm^-1]                 191.6783       
  Irrep                           Ag          
  Reduced mass [u]             106.9051       
  Force const [mDyne/A]         2.3142        
  Turning point v=0 [a0]        0.0767        
  RMS dev v=0 [a0 u^1/2]        0.5604        
  Char temp [K]                275.7825       
  ----------------------------------------------------------------------------------
      1   AG               0.00  0.00  0.71   
      2   AG               0.00  0.00 -0.71   

  ==> Thermochemistry Components <==

  Entropy, S
    Electronic S            0.000 [cal/(mol K)]        0.000 [J/(mol K)]       0.00000000 [mEh/K] (multiplicity = 1)
    Translational S        41.983 [cal/(mol K)]      175.658 [J/(mol K)]       0.06690442 [mEh/K] (mol. weight = 213.8102 [u], P = 101325.00 [Pa])
    Rotational S           17.221 [cal/(mol K)]       72.053 [J/(mol K)]       0.02744346 [mEh/K] (symmetry no. = 2)
    Vibrational S           2.212 [cal/(mol K)]        9.253 [J/(mol K)]       0.00352431 [mEh/K]
  Total S                  61.416 [cal/(mol K)]      256.963 [J/(mol K)]       0.09787219 [mEh/K]
  Correction S              0.000 [cal/(mol K)]        0.000 [J/(mol K)]       0.00000000 [mEh/K]

  Constant volume heat capacity, Cv
    Electronic Cv           0.000 [cal/(mol K)]        0.000 [J/(mol K)]       0.00000000 [mEh/K]
    Translational Cv        2.981 [cal/(mol K)]       12.472 [J/(mol K)]       0.00475022 [mEh/K]
    Rotational Cv           1.987 [cal/(mol K)]        8.314 [J/(mol K)]       0.00316681 [mEh/K]
    Vibrational Cv          1.851 [cal/(mol K)]        7.746 [J/(mol K)]       0.00295036 [mEh/K]
  Total Cv                  6.819 [cal/(mol K)]       28.532 [J/(mol K)]       0.01086739 [mEh/K]
  Correction Cv             0.000 [cal/(mol K)]        0.000 [J/(mol K)]       0.00000000 [mEh/K]

  Constant pressure heat capacity, Cp
    Electronic Cp           0.000 [cal/(mol K)]        0.000 [J/(mol K)]       0.00000000 [mEh/K]
    Translational Cp        4.968 [cal/(mol K)]       20.786 [J/(mol K)]       0.00791703 [mEh/K]
    Rotational Cp           1.987 [cal/(mol K)]        8.314 [J/(mol K)]       0.00316681 [mEh/K]
    Vibrational Cp          1.851 [cal/(mol K)]        7.746 [J/(mol K)]       0.00295036 [mEh/K]
  Total Cp                  8.807 [cal/(mol K)]       36.847 [J/(mol K)]       0.01403420 [mEh/K]
  Correction Cp             0.000 [cal/(mol K)]        0.000 [J/(mol K)]       0.00000000 [mEh/K]

  ==> Thermochemistry Energy Analysis <==

  Raw electronic energy, E0
  Total E0, Electronic energy at well bottom at 0 [K]                 -293.41953594 [Eh]

  Zero-point energy, ZPE_vib = Sum_i nu_i / 2
    Electronic ZPE          0.000 [kcal/mol]        0.000 [kJ/mol]       0.00000000 [Eh]
    Translational ZPE       0.000 [kcal/mol]        0.000 [kJ/mol]       0.00000000 [Eh]
    Rotational ZPE          0.000 [kcal/mol]        0.000 [kJ/mol]       0.00000000 [Eh]
    Vibrational ZPE         0.274 [kcal/mol]        1.146 [kJ/mol]       0.00043668 [Eh]          95.839 [cm^-1]
  Correction ZPE            0.274 [kcal/mol]        1.146 [kJ/mol]       0.00043668 [Eh]          95.839 [cm^-1]
  Total ZPE, Electronic energy at 0 [K]                               -293.41909926 [Eh]

  Thermal Energy, E (includes ZPE)
    Electronic E            0.000 [kcal/mol]        0.000 [kJ/mol]       0.00000000 [Eh]
    Translational E         0.889 [kcal/mol]        3.718 [kJ/mol]       0.00141628 [Eh]
    Rotational E            0.592 [kcal/mol]        2.479 [kJ/mol]       0.00094418 [Eh]
    Vibrational E           0.634 [kcal/mol]        2.653 [kJ/mol]       0.00101056 [Eh]
  Correction E              2.115 [kcal/mol]        8.851 [kJ/mol]       0.00337102 [Eh]
  Total E, Electronic energy at  298.15 [K]                           -293.41616491 [Eh]

  Enthalpy, H_trans = E_trans + k_B * T
    Electronic H            0.000 [kcal/mol]        0.000 [kJ/mol]       0.00000000 [Eh]
    Translational H         1.481 [kcal/mol]        6.197 [kJ/mol]       0.00236046 [Eh]
    Rotational H            0.592 [kcal/mol]        2.479 [kJ/mol]       0.00094418 [Eh]
    Vibrational H           0.634 [kcal/mol]        2.653 [kJ/mol]       0.00101056 [Eh]
  Correction H              2.708 [kcal/mol]       11.330 [kJ/mol]       0.00431521 [Eh]
  Total H, Enthalpy at  298.15 [K]                                    -293.41522073 [Eh]

  Gibbs free energy, G = H - T * S
    Electronic G            0.000 [kcal/mol]        0.000 [kJ/mol]       0.00000000 [Eh]
    Translational G       -11.036 [kcal/mol]      -46.175 [kJ/mol]      -0.01758709 [Eh]
    Rotational G           -4.542 [kcal/mol]      -19.004 [kJ/mol]      -0.00723808 [Eh]
    Vibrational G          -0.025 [kcal/mol]       -0.106 [kJ/mol]      -0.00004021 [Eh]
  Correction G            -15.603 [kcal/mol]      -65.284 [kJ/mol]      -0.02486539 [Eh]
  Total G, Free enthalpy at  298.15 [K]                               -293.44440132 [Eh]

    Psi4 stopped on: Friday, 29 October 2021 08:44AM
    Psi4 wall time for execution: 0:06:43.35

*** Psi4 exiting successfully. Buy a developer a beer!
