Optimizer: Optimization complete!
 6 displacements needed.
 1 2 3 4 5 6
Warning: used thermodynamics relations inappropriate for low-frequency modes: ['95.4058' '125.7149' '182.3472']
At level 1: Red. Int., RFO, no backsteps, dynamic trust
At level 1: Red. Int., RFO, no backsteps, dynamic trust
At level 1: Red. Int., RFO, no backsteps, dynamic trust
ein, U. Bozkaya, A. Yu. Sokolov,
    R. Di Remigio, R. M. Richard, J. F. Gonthier, A. M. James,
    H. R. McAlexander, A. Kumar, M. Saitow, X. Wang, B. P. Pritchard,
    P. Verma, H. F. Schaefer III, K. Patkowski, R. A. King, E. F. Valeev,
    F. A. Evangelista, J. M. Turney, T. D. Crawford, and C. D. Sherrill,
    J. Chem. Theory Comput. 13(7) pp 3185--3197 (2017).
    (doi: 10.1021/acs.jctc.7b00174)


                         Additional Contributions by
    P. Kraus, H. Kruse, M. H. Lechner, M. C. Schieber, R. A. Shaw,
    A. Alenaizan, R. Galvelis, Z. L. Glick, S. Lehtola, and J. P. Misiewicz

    -----------------------------------------------------------------------


    Psi4 started on: Friday, 29 October 2021 08:37AM

    Process ID: 55264
    Host:       bp1-compute00066.data.bp.acrc.priv
    PSIDATADIR: /work/zw18965/.conda/envs/p4env/share/psi4
    Memory:     500.0 MiB
    Threads:    24
    
  ==> Input File <==

--------------------------------------------------------------------------
memory 144 GB

molecule {
1 1
Ag       0.000000    1.529877    0.000000 
Ag       1.324912   -0.764938    0.000000 
Ag      -1.324912   -0.764938    0.000000 
 }

set dynamic_level 1
set basis Def2-TZVPPD

optimize("MN15-D3BJ")
frequencies("MN15-D3BJ")
--------------------------------------------------------------------------

  Memory set to 134.110 GiB by Python driver.
gradient() will perform analytic gradient computation.

*** tstart() called on bp1-compute00066.data.bp.acrc.priv
*** at Fri Oct 29 08:37:43 2021

   => Loading Basis Set <=

    Name: DEF2-TZVPPD
    Role: ORBITAL
    Keyword: BASIS
    atoms 1-3 entry AG         line  2174 (ECP: line  3646) file /work/zw18965/.conda/envs/p4env/share/psi4/basis/def2-tzvppd.gbs 

    !!!  WARNING: ECP capability is in beta. Please check occupations closely.  !!!


         ---------------------------------------------------------
                                   SCF
               by Justin Turney, Rob Parrish, Andy Simmonett
                          and Daniel G. A. Smith
                              RKS Reference
                       24 Threads, 137329 MiB Core
         ---------------------------------------------------------

  ==> Geometry <==

    Molecular point group: c2v
    Full point group: C2v

    Geometry (in Angstrom), charge = 1, multiplicity = 1:

       Center              X                  Y                   Z               Mass       
    ------------   -----------------  -----------------  -----------------  -----------------
         AG           0.000000000000    -0.000000000000     1.529876666667   106.905091600000
         AG           1.324912000000     0.000000000000    -0.764938333333   106.905091600000
         AG          -1.324912000000    -0.000000000000    -0.764938333333   106.905091600000

  Running in c2v symmetry.

  Rotational constants: A =      0.04492  B =      0.04492  C =      0.02246 [cm^-1]
  Rotational constants: A =   1346.52601  B =   1346.52589  C =    673.26298 [MHz]
  Nuclear repulsion =  216.278102475318605

  Charge       = 1
  Multiplicity = 1
  Electrons    = 56
  Nalpha       = 28
  Nbeta        = 28

  ==> Algorithm <==

  SCF Algorithm Type is DF.
  DIIS enabled.
  MOM disabled.
  Fractional occupation disabled.
  Guess Type is SAD.
  Energy threshold   = 1.00e-08
  Density threshold  = 1.00e-08
  Integral threshold = 0.00e+00

  ==> Primary Basis <==

  Basis Set: DEF2-TZVPPD
    Blend: DEF2-TZVPPD
    Number of shells: 48
    Number of basis function: 168
    Number of Cartesian functions: 213
    Spherical Harmonics?: true
    Max angular momentum: 4

  Core potential: DEF2-TZVPPD
    Number of shells: 12
    Number of ECP primitives: 42
    Number of ECP core electrons: 84
    Max angular momentum: 3

  ==> DFT Potential <==

   => Composite Functional: MN15-D3BJ <= 

   MN15 Hybrid Meta-GGA Exchange-Correlation Functional

    H. S. Yu, X. He, S. L. Li, and D. G. Truhlar, Chem. Sci. 7, 5032-5051, 2016


    Deriv               =              1
    GGA                 =           TRUE
    Meta                =           TRUE

    Exchange Hybrid     =           TRUE
    MP2 Hybrid          =          FALSE

   => Exchange Functionals <=

    1.0000   XC_HYB_MGGA_X_MN15

   => Exact (HF) Exchange <=

    0.4400               HF 

   => Correlation Functionals <=

    1.0000   XC_MGGA_C_MN15

   => Molecular Quadrature <=

    Radial Scheme          =       TREUTLER
    Pruning Scheme         =           FLAT
    Nuclear Scheme         =       TREUTLER

    BS radius alpha        =              1
    Pruning alpha          =              1
    Radial Points          =             75
    Spherical Points       =            302
    Total Points           =          67393
    Total Blocks           =            591
    Max Points             =            256
    Max Functions          =            166

   => MN15-D3(BJ): Empirical Dispersion <=

    Grimme's -D3 (BJ-damping) Dispersion Correction
    Grimme S.; Ehrlich S.; Goerigk L. (2011), J. Comput. Chem., 32: 1456
    Parametrisation from:    L. Goerigk, A. Hansen, C. Bauer, S. Ehrlich, A. Najibi, S. Grimme, Phys. Chem. Chem. Phys. 19, 32184-32215, 2017

        s6 =       1.000000
        s8 =       2.097100
        a1 =       0.786200
        a2 =       7.592300

   => Loading Basis Set <=

    Name: (DEF2-TZVPPD AUX)
    Role: JKFIT
    Keyword: DF_BASIS_SCF
    atoms 1-3 entry AG         line  4369 file /work/zw18965/.conda/envs/p4env/share/psi4/basis/def2-tzvpp-jkfit.gbs 

  ==> Pre-Iterations <==

   -------------------------------------------------------
    Irrep   Nso     Nmo     Nalpha   Nbeta   Ndocc  Nsocc
   -------------------------------------------------------
     A1        59      59       0       0       0       0
     A2        27      27       0       0       0       0
     B1        49      49       0       0       0       0
     B2        33      33       0       0       0       0
   -------------------------------------------------------
    Total     168     168      28      28      28       0
   -------------------------------------------------------

  ==> Integral Setup <==

  DFHelper Memory: AOs need 0.177 GiB; user supplied 99.984 GiB. Using in-core AOs.

  ==> MemDFJK: Density-Fitted J/K Matrices <==

    J tasked:                   Yes
    K tasked:                   Yes
    wK tasked:                   No
    OpenMP threads:              24
    Memory [MiB]:            102383
    Algorithm:                 Core
    Schwarz Cutoff:           1E-12
    Mask sparsity (%):       1.2188
    Fitting Condition:        1E-10

   => Auxiliary Basis Set <=

  Basis Set: (DEF2-TZVPPD AUX)
    Blend: DEF2-TZVPP-JKFIT
    Number of shells: 147
    Number of basis function: 765
    Number of Cartesian functions: 1152
    Spherical Harmonics?: true
    Max angular momentum: 6

  Cached 100.0% of DFT collocation blocks in 0.599 [GiB].

  Minimum eigenvalue in the overlap matrix is 2.8944547741E-03.
  Using Symmetric Orthogonalization.

  SCF Guess: Superposition of Atomic Densities via on-the-fly atomic UHF.

  ==> Iterations <==

                           Total Energy        Delta E     RMS |[F,P]|

   @DF-RKS iter SAD:  -439.46116782638705   -4.39461e+02   0.00000e+00 
   @DF-RKS iter   1:  -439.86606466514348   -4.04897e-01   4.98354e-03 DIIS
   @DF-RKS iter   2:  -439.85192632952788    1.41383e-02   5.87972e-03 DIIS
   @DF-RKS iter   3:  -439.91975179331041   -6.78255e-02   2.45266e-04 DIIS
   @DF-RKS iter   4:  -439.91991822995459   -1.66437e-04   1.47176e-04 DIIS
   @DF-RKS iter   5:  -439.91997224184729   -5.40119e-05   3.19487e-05 DIIS
   @DF-RKS iter   6:  -439.91997829258918   -6.05074e-06   9.05509e-06 DIIS
   @DF-RKS iter   7:  -439.91997852420991   -2.31621e-07   6.17609e-06 DIIS
   @DF-RKS iter   8:  -439.91997864525104   -1.21041e-07   6.46807e-07 DIIS
   @DF-RKS iter   9:  -439.91997865027673   -5.02570e-09   1.20865e-07 DIIS
   @DF-RKS iter  10:  -439.91997865037342   -9.66907e-11   5.56526e-08 DIIS
   @DF-RKS iter  11:  -439.91997865038417   -1.07434e-11   7.80475e-09 DIIS
  Energy and wave function converged.


  ==> Post-Iterations <==

    Orbital Energies [Eh]
    ---------------------

    Doubly Occupied:                                                      

       1A1    -3.843450     2A1    -3.842836     1B1    -3.842836  
       3A1    -2.497962     2B1    -2.495536     4A1    -2.495532  
       3B1    -2.492093     1B2    -2.491807     1A2    -2.491129  
       2B2    -2.491128     4B1    -2.490975     5A1    -2.490967  
       6A1    -0.617838     5B1    -0.601572     7A1    -0.601567  
       3B2    -0.597228     8A1    -0.582611     4B2    -0.579226  
       2A2    -0.579225     6B1    -0.558483     9A1    -0.558482  
       3A2    -0.554794     5B2    -0.551575     4A2    -0.551570  
       7B1    -0.550946    10A1    -0.550935     8B1    -0.531153  
      11A1    -0.459367  

    Virtual:                                                              

       9B1    -0.248153    12A1    -0.248151     6B2    -0.179277  
      13A1    -0.130094    14A1    -0.123710    10B1    -0.123709  
       5A2    -0.073780     7B2    -0.073779    11B1    -0.002878  
      15A1    -0.002876    12B1    -0.001851    16A1     0.008310  
      17A1     0.060298     8B2     0.066465    13B1     0.077636  
      18A1     0.077636    14B1     0.085145    19A1     0.085146  
       6A2     0.120658     9B2     0.120660    15B1     0.182275  
      20A1     0.217171    16B1     0.231848    21A1     0.231860  
      10B2     0.255582     7A2     0.255590    11B2     0.272579  
      17B1     0.365098    22A1     0.365101     8A2     0.409144  
      23A1     0.431991     9A2     0.462364    12B2     0.462376  
      18B1     0.471030    24A1     0.471040    19B1     0.543601  
      25A1     0.543629    20B1     0.601509    26A1     1.280375  
      21B1     1.280381    27A1     1.315579    28A1     1.325507  
      13B2     1.355476    10A2     1.357410    14B2     1.357432  
      29A1     1.385535    22B1     1.385564    15B2     1.386738  
      11A2     1.400909    16B2     1.400920    23B1     1.403033  
      12A2     1.419168    17B2     1.419193    24B1     1.434286  
      30A1     1.434287    13A2     1.450497    25B1     1.459358  
      31A1     1.459362    18B2     1.459475    32A1     1.500720  
      26B1     1.500735    27B1     1.510214    33A1     1.539342  
      14A2     1.551735    19B2     1.551778    34A1     1.583542  
      28B1     1.583554    29B1     1.727183    35A1     1.767150  
      36A1     1.856525    20B2     1.866648    15A2     1.866744  
      21B2     1.897331    30B1     1.899167    37A1     1.899173  
      16A2     1.917507    31B1     1.925341    38A1     1.925352  
      17A2     1.941455    22B2     1.941459    32B1     2.030519  
      39A1     2.030583    33B1     2.056895    40A1     2.160755  
      34B1     2.316391    41A1     2.316431    42A1     4.364892  
      35B1     4.382134    43A1     4.382153    23B2     4.391343  
      18A2     4.393730    24B2     4.393799    44A1     4.402119  
      25B2     4.416914    45A1     4.420666    36B1     4.420676  
      26B2     4.428973    19A2     4.429000    37B1     4.433925  
      20A2     4.474701    46A1     4.495793    38B1     4.495827  
      21A2     4.498080    27B2     4.498225    47A1     4.650216  
      39B1     4.650242    40B1     4.665624    48A1     5.226013  
      49A1     5.227184    41B1     5.227214    42B1     5.227718  
      22A2     5.227865    28B2     5.227915    29B2     5.228039  
      50A1     5.228443    43B1     5.228534    23A2     5.228674  
      30B2     5.228674    24A2     5.228720    51A1     5.229584  
      31B2     5.229746    52A1     5.230311    44B1     5.230414  
      32B2     5.231452    25A2     5.231578    53A1     5.231695  
      45B1     5.231736    54A1     5.231739    26A2     5.231940  
      33B2     5.232074    27A2     5.232089    46B1     5.233339  
      55A1     5.240130    47B1     5.240166    56A1    32.632160  
      57A1    32.965296    48B1    32.965298    58A1   110.370527  
      49B1   110.476469    59A1   110.476471  

    Final Occupation by Irrep:
             A1    A2    B1    B2 
    DOCC [    11,    4,    8,    5 ]

  @DF-RKS Final Energy:  -439.91997865038417

   => Energetics <=

    Nuclear Repulsion Energy =            216.2781024753186045
    One-Electron Energy =               -1203.0801165392804251
    Two-Electron Energy =                 570.7433496163089330
    DFT Exchange-Correlation Energy =     -23.8611851827313757
    Empirical Dispersion Energy =          -0.0001290200000000
    VV10 Nonlocal Energy =                  0.0000000000000000
    Total Energy =                       -439.9199786503842233

Computation Completed


Properties will be evaluated at   0.000000,   0.000000,   0.000000 [a0]

Properties computed using the SCF density matrix

  Nuclear Dipole Moment: [e a0]
     X:     0.0000      Y:     0.0000      Z:    -0.0000

  Electronic Dipole Moment: [e a0]
     X:     0.0000      Y:     0.0000      Z:     0.0000

  Dipole Moment: [e a0]
     X:     0.0000      Y:     0.0000      Z:     0.0000     Total:     0.0000

  Dipole Moment: [D]
     X:     0.0000      Y:     0.0000      Z:     0.0000     Total:     0.0000


*** tstop() called on bp1-compute00066.data.bp.acrc.priv at Fri Oct 29 08:37:51 2021
Module time:
	user time   =      78.67 seconds =       1.31 minutes
	system time =       3.62 seconds =       0.06 minutes
	total time  =          8 seconds =       0.13 minutes
Total time:
	user time   =      78.67 seconds =       1.31 minutes
	system time =       3.62 seconds =       0.06 minutes
	total time  =          8 seconds =       0.13 minutes

*** tstart() called on bp1-compute00066.data.bp.acrc.priv
*** at Fri Oct 29 08:37:51 2021


         ------------------------------------------------------------
                                   SCF GRAD                          
                          Rob Parrish, Justin Turney,                
                       Andy Simmonett, and Alex Sokolov              
         ------------------------------------------------------------

  ==> Geometry <==

    Molecular point group: c2v
    Full point group: C2v

    Geometry (in Angstrom), charge = 1, multiplicity = 1:

       Center              X                  Y                   Z               Mass       
    ------------   -----------------  -----------------  -----------------  -----------------
         AG           0.000000000000    -0.000000000000     1.529876666667   106.905091600000
         AG           1.324912000000     0.000000000000    -0.764938333333   106.905091600000
         AG          -1.324912000000    -0.000000000000    -0.764938333333   106.905091600000

  Nuclear repulsion =  216.278102475318605

  ==> Basis Set <==

  Basis Set: DEF2-TZVPPD
    Blend: DEF2-TZVPPD
    Number of shells: 48
    Number of basis function: 168
    Number of Cartesian functions: 213
    Spherical Harmonics?: true
    Max angular momentum: 4

  Core potential: DEF2-TZVPPD
    Number of shells: 12
    Number of ECP primitives: 42
    Number of ECP core electrons: 84
    Max angular momentum: 3

  ==> DFJKGrad: Density-Fitted SCF Gradients <==

    Gradient:                    1
    J tasked:                  Yes
    K tasked:                  Yes
    wK tasked:                  No
    OpenMP threads:             24
    Integrals threads:          24
    Memory [MiB]:           102996
    Schwarz Cutoff:          0E+00
    Fitting Condition:       1E-10

   => Auxiliary Basis Set <=

  Basis Set: (DEF2-TZVPPD AUX)
    Blend: DEF2-TZVPP-JKFIT
    Number of shells: 147
    Number of basis function: 765
    Number of Cartesian functions: 1152
    Spherical Harmonics?: true
    Max angular momentum: 6

  ==> DFT Potential <==

   => Composite Functional: MN15-D3BJ <= 

   MN15 Hybrid Meta-GGA Exchange-Correlation Functional

    H. S. Yu, X. He, S. L. Li, and D. G. Truhlar, Chem. Sci. 7, 5032-5051, 2016


    Deriv               =              1
    GGA                 =           TRUE
    Meta                =           TRUE

    Exchange Hybrid     =           TRUE
    MP2 Hybrid          =          FALSE

   => Exchange Functionals <=

    1.0000   XC_HYB_MGGA_X_MN15

   => Exact (HF) Exchange <=

    0.4400               HF 

   => Correlation Functionals <=

    1.0000   XC_MGGA_C_MN15

   => Molecular Quadrature <=

    Radial Scheme          =       TREUTLER
    Pruning Scheme         =           FLAT
    Nuclear Scheme         =       TREUTLER

    BS radius alpha        =              1
    Pruning alpha          =              1
    Radial Points          =             75
    Spherical Points       =            302
    Total Points           =          67393
    Total Blocks           =            591
    Max Points             =            256
    Max Functions          =            166


  -Total Gradient:
     Atom            X                  Y                   Z
    ------   -----------------  -----------------  -----------------
       1        0.000000000000     0.000000000000    -0.175096437864
       2       -0.151604626184    -0.000000000000     0.087605153459
       3        0.151604626184     0.000000000000     0.087605153459


*** tstop() called on bp1-compute00066.data.bp.acrc.priv at Fri Oct 29 08:37:56 2021
Module time:
	user time   =      48.12 seconds =       0.80 minutes
	system time =       2.87 seconds =       0.05 minutes
	total time  =          5 seconds =       0.08 minutes
Total time:
	user time   =     127.77 seconds =       2.13 minutes
	system time =       6.57 seconds =       0.11 minutes
	total time  =         13 seconds =       0.22 minutes


  ==> Adding ECP gradient terms (computed numerically) <==

  -ECP Gradient:
     Atom            X                  Y                   Z
    ------   -----------------  -----------------  -----------------
       1        0.000000000000    -0.000000000000     0.171211529126
       2        0.148273117038     0.000000000000    -0.085605765226
       3       -0.148273117038    -0.000000000000    -0.085605765226


  -Total Gradient:
     Atom            X                  Y                   Z
    ------   -----------------  -----------------  -----------------
       1        0.000000000000     0.000000000000    -0.003884908738
       2       -0.003331509146    -0.000000000000     0.001999388233
       3        0.003331509146     0.000000000000     0.001999388233


			-----------------------------------------
			 OPTKING 2.0: for geometry optimizations 
			  - R.A. King,  Bethel University        
			-----------------------------------------
	At level 1: Red. Int., RFO, no backsteps, dynamic trust

	Internal coordinates to be generated automatically.
	Detected frag 1 with atoms:  1 2 3
	---Fragment 1 Bond Connectivity---
	 1 : 2 3
	 2 : 1 3
	 3 : 1 2

	---Fragment 1 Geometry and Gradient---
	 AG          0.0000000000       -0.0000000000        2.8910479057
	 AG          2.5037208203        0.0000000000       -1.4455239529
	 AG         -2.5037208203       -0.0000000000       -1.4455239529
	             0.0000000000        0.0000000000       -0.0038849087
	            -0.0033315091       -0.0000000000        0.0019993882
	             0.0033315091        0.0000000000        0.0019993882

	Previous optimization step data not found.  Starting new optimization.

	---Fragment 1 Intrafragment Coordinates---
	 - Coordinate -           - BOHR/RAD -       - ANG/DEG -
	 R(1,2)           =         5.007442	       2.649824
	 R(1,3)           =         5.007442	       2.649824
	 R(2,3)           =         5.007442	       2.649824
	 B(1,2,3)         =         1.047198	      60.000001
	 B(1,3,2)         =         1.047198	      60.000001
	 B(2,1,3)         =         1.047198	      59.999998

	Current energy   :      -439.9199786504

	Generating empirical Hessian (Schlegel '84) for each fragment.
	Taking RFO optimization step.
	Going to follow RFO solution 1.
	Using RFO vector 1.
	Norm of target step-size    0.05672
	Projected energy change by RFO approximation:        -0.0002218007

	Back-transformation to cartesian coordinates...
	Successfully converged to displaced geometry.

	--- Internal Coordinate Step in ANG or DEG, aJ/ANG or AJ/DEG ---
	 ---------------------------------------------------------------------------
	   Coordinate                Previous        Force       Change         New 
	   ----------                --------       ------       ------       ------
	    1 R(1,2)          =      2.649824     0.018640     0.017447     2.667271
	    2 R(1,3)          =      2.649824     0.018640     0.017447     2.667271
	    3 R(2,3)          =      2.649824     0.018156     0.017093     2.666917
	    4 B(1,2,3)        =     60.000001     0.000001     0.004390    60.004391
	    5 B(1,3,2)        =     60.000001     0.000001     0.004390    60.004391
	    6 B(2,1,3)        =     59.999998    -0.000001    -0.008779    59.991219
	 ---------------------------------------------------------------------------
	Successfully symmetrized geometry.

  ==> Convergence Check <==

  Measures of convergence in internal coordinates in au.
  Criteria marked as inactive (o), active & met (*), and active & unmet ( ).
  --------------------------------------------------------------------------------------------- ~
   Step     Total Energy     Delta E     MAX Force     RMS Force      MAX Disp      RMS Disp    ~
  --------------------------------------------------------------------------------------------- ~
    Convergence Criteria    1.00e-06 *    3.00e-04 *             o    1.20e-03 *             o  ~
  --------------------------------------------------------------------------------------------- ~
      1    -439.91997865   -4.40e+02      2.26e-03      1.59e-03 o    3.30e-02      2.32e-02 o  ~
  ---------------------------------------------------------------------------------------------

	Writing optimization data to binary file.
	Structure for next step:
	Cartesian Geometry (in Angstrom)
	   AG     0.0000000000  -0.0000000000   1.5400175746
	   AG     1.3334583232   0.0000000000  -0.7700087873
	   AG    -1.3334583232  -0.0000000000  -0.7700087873
			--------------------------
			 OPTKING Finished Execution 
			--------------------------

    Structure for next step:
    Molecular point group: c2v
    Full point group: C2v

    Geometry (in Angstrom), charge = 1, multiplicity = 1:

    AG           0.000000000000    -0.000000000000     1.540017580634
    AG           1.333458328442     0.000000000000    -0.770008790317
    AG          -1.333458328442    -0.000000000000    -0.770008790317

gradient() will perform analytic gradient computation.

*** tstart() called on bp1-compute00066.data.bp.acrc.priv
*** at Fri Oct 29 08:40:15 2021

   => Loading Basis Set <=

    Name: DEF2-TZVPPD
    Role: ORBITAL
    Keyword: BASIS
    atoms 1-3 entry AG         line  2174 (ECP: line  3646) file /work/zw18965/.conda/envs/p4env/share/psi4/basis/def2-tzvppd.gbs 

    !!!  WARNING: ECP capability is in beta. Please check occupations closely.  !!!


         ---------------------------------------------------------
                                   SCF
               by Justin Turney, Rob Parrish, Andy Simmonett
                          and Daniel G. A. Smith
                              RKS Reference
                       24 Threads, 137329 MiB Core
         ---------------------------------------------------------

  ==> Geometry <==

    Molecular point group: c2v
    Full point group: C2v

    Geometry (in Angstrom), charge = 1, multiplicity = 1:

       Center              X                  Y                   Z               Mass       
    ------------   -----------------  -----------------  -----------------  -----------------
         AG           0.000000000000    -0.000000000000     1.540017580634   106.905091600000
         AG           1.333458328442     0.000000000000    -0.770008790317   106.905091600000
         AG          -1.333458328442    -0.000000000000    -0.770008790317   106.905091600000

  Running in c2v symmetry.

  Rotational constants: A =      0.04434  B =      0.04433  C =      0.02217 [cm^-1]
  Rotational constants: A =   1329.32116  B =   1328.85071  C =    664.54295 [MHz]
  Nuclear repulsion =  214.872933796537978

  Charge       = 1
  Multiplicity = 1
  Electrons    = 56
  Nalpha       = 28
  Nbeta        = 28

  ==> Algorithm <==

  SCF Algorithm Type is DF.
  DIIS enabled.
  MOM disabled.
  Fractional occupation disabled.
  Guess Type is READ.
  Energy threshold   = 1.00e-08
  Density threshold  = 1.00e-08
  Integral threshold = 0.00e+00

  ==> Primary Basis <==

  Basis Set: DEF2-TZVPPD
    Blend: DEF2-TZVPPD
    Number of shells: 48
    Number of basis function: 168
    Number of Cartesian functions: 213
    Spherical Harmonics?: true
    Max angular momentum: 4

  Core potential: DEF2-TZVPPD
    Number of shells: 12
    Number of ECP primitives: 42
    Number of ECP core electrons: 84
    Max angular momentum: 3

  ==> DFT Potential <==

   => Composite Functional: MN15-D3BJ <= 

   MN15 Hybrid Meta-GGA Exchange-Correlation Functional

    H. S. Yu, X. He, S. L. Li, and D. G. Truhlar, Chem. Sci. 7, 5032-5051, 2016


    Deriv               =              1
    GGA                 =           TRUE
    Meta                =           TRUE

    Exchange Hybrid     =           TRUE
    MP2 Hybrid          =          FALSE

   => Exchange Functionals <=

    1.0000   XC_HYB_MGGA_X_MN15

   => Exact (HF) Exchange <=

    0.4400               HF 

   => Correlation Functionals <=

    1.0000   XC_MGGA_C_MN15

   => Molecular Quadrature <=

    Radial Scheme          =       TREUTLER
    Pruning Scheme         =           FLAT
    Nuclear Scheme         =       TREUTLER

    BS radius alpha        =              1
    Pruning alpha          =              1
    Radial Points          =             75
    Spherical Points       =            302
    Total Points           =          67397
    Total Blocks           =            591
    Max Points             =            256
    Max Functions          =            166

   => MN15-D3(BJ): Empirical Dispersion <=

    Grimme's -D3 (BJ-damping) Dispersion Correction
    Grimme S.; Ehrlich S.; Goerigk L. (2011), J. Comput. Chem., 32: 1456
    Parametrisation from:    L. Goerigk, A. Hansen, C. Bauer, S. Ehrlich, A. Najibi, S. Grimme, Phys. Chem. Chem. Phys. 19, 32184-32215, 2017

        s6 =       1.000000
        s8 =       2.097100
        a1 =       0.786200
        a2 =       7.592300

   => Loading Basis Set <=

    Name: (DEF2-TZVPPD AUX)
    Role: JKFIT
    Keyword: DF_BASIS_SCF
    atoms 1-3 entry AG         line  4369 file /work/zw18965/.conda/envs/p4env/share/psi4/basis/def2-tzvpp-jkfit.gbs 

   => Loading Basis Set <=

    Name: DEF2-TZVPPD
    Role: ORBITAL
    Keyword: BASIS
    atoms 1-3 entry AG         line  2174 (ECP: line  3646) file /work/zw18965/.conda/envs/p4env/share/psi4/basis/def2-tzvppd.gbs 

    !!!  WARNING: ECP capability is in beta. Please check occupations closely.  !!!

  Reading orbitals from file 180, no projection.

  ==> Pre-Iterations <==

   -------------------------------------------------------
    Irrep   Nso     Nmo     Nalpha   Nbeta   Ndocc  Nsocc
   -------------------------------------------------------
     A1        59      59       0       0       0       0
     A2        27      27       0       0       0       0
     B1        49      49       0       0       0       0
     B2        33      33       0       0       0       0
   -------------------------------------------------------
    Total     168     168      28      28      28       0
   -------------------------------------------------------

  ==> Integral Setup <==

  DFHelper Memory: AOs need 0.176 GiB; user supplied 99.986 GiB. Using in-core AOs.

  ==> MemDFJK: Density-Fitted J/K Matrices <==

    J tasked:                   Yes
    K tasked:                   Yes
    wK tasked:                   No
    OpenMP threads:              24
    Memory [MiB]:            102385
    Algorithm:                 Core
    Schwarz Cutoff:           1E-12
    Mask sparsity (%):       1.2613
    Fitting Condition:        1E-10

   => Auxiliary Basis Set <=

  Basis Set: (DEF2-TZVPPD AUX)
    Blend: DEF2-TZVPP-JKFIT
    Number of shells: 147
    Number of basis function: 765
    Number of Cartesian functions: 1152
    Spherical Harmonics?: true
    Max angular momentum: 6

  Cached 100.0% of DFT collocation blocks in 0.597 [GiB].

  Minimum eigenvalue in the overlap matrix is 2.9944207468E-03.
  Using Symmetric Orthogonalization.

  SCF Guess: Orbitals guess was supplied from a previous computation.

  ==> Iterations <==

                           Total Energy        Delta E     RMS |[F,P]|

   @DF-RKS iter   0:  -439.91913497397366   -4.39919e+02   4.51517e-04 
   @DF-RKS iter   1:  -439.92011975491545   -9.84781e-04   1.69849e-05 DIIS
   @DF-RKS iter   2:  -439.92012046846816   -7.13553e-07   1.20936e-05 DIIS
   @DF-RKS iter   3:  -439.92012070372283   -2.35255e-07   4.09130e-06 DIIS
   @DF-RKS iter   4:  -439.92012074085721   -3.71344e-08   5.66950e-07 DIIS
   @DF-RKS iter   5:  -439.92012074350436   -2.64714e-09   1.90325e-07 DIIS
   @DF-RKS iter   6:  -439.92012074371030   -2.05944e-10   1.21516e-07 DIIS
   @DF-RKS iter   7:  -439.92012074376174   -5.14433e-11   1.08534e-08 DIIS
   @DF-RKS iter   8:  -439.92012074376316   -1.42109e-12   2.22750e-09 DIIS
  Energy and wave function converged.


  ==> Post-Iterations <==

    Orbital Energies [Eh]
    ---------------------

    Doubly Occupied:                                                      

       1A1    -3.842696     2A1    -3.842135     1B1    -3.842134  
       3A1    -2.496902     2B1    -2.494703     4A1    -2.494701  
       3B1    -2.491495     1B2    -2.491140     2B2    -2.490509  
       1A2    -2.490508     4B1    -2.490377     5A1    -2.490370  
       6A1    -0.615451     7A1    -0.599844     5B1    -0.599829  
       3B2    -0.595507     8A1    -0.581451     4B2    -0.578186  
       2A2    -0.578176     9A1    -0.558165     6B1    -0.558153  
       3A2    -0.554628     5B2    -0.551451     4A2    -0.551439  
       7B1    -0.550776    10A1    -0.550775     8B1    -0.531586  
      11A1    -0.458082  

    Virtual:                                                              

      12A1    -0.248232     9B1    -0.248217     6B2    -0.178673  
      13A1    -0.130240    14A1    -0.123968    10B1    -0.123962  
       7B2    -0.074078     5A2    -0.074064    15A1    -0.003285  
      11B1    -0.003276    12B1    -0.002521    16A1     0.008370  
      17A1     0.060327     8B2     0.066998    18A1     0.077809  
      13B1     0.077809    19A1     0.085241    14B1     0.085246  
       9B2     0.120632     6A2     0.120643    15B1     0.181068  
      20A1     0.216489    21A1     0.229007    16B1     0.229042  
      10B2     0.255036     7A2     0.255041    11B2     0.270865  
      22A1     0.364363    17B1     0.364367     8A2     0.408473  
      23A1     0.431272    12B2     0.461963     9A2     0.461968  
      18B1     0.469817    24A1     0.469840    19B1     0.543286  
      25A1     0.543300    20B1     0.600307    26A1     1.288098  
      21B1     1.288237    27A1     1.323029    28A1     1.330974  
      13B2     1.358975    14B2     1.360388    10A2     1.360403  
      29A1     1.386344    22B1     1.386390    15B2     1.388070  
      16B2     1.401107    11A2     1.401113    23B1     1.402939  
      17B2     1.417345    12A2     1.417360    30A1     1.431505  
      24B1     1.431550    13A2     1.447487    31A1     1.457509  
      25B1     1.457551    18B2     1.459755    32A1     1.497821  
      26B1     1.497867    27B1     1.505754    33A1     1.541281  
      14A2     1.549976    19B2     1.549987    34A1     1.580525  
      28B1     1.580529    29B1     1.725856    35A1     1.763311  
      36A1     1.858186    20B2     1.868047    15A2     1.868154  
      21B2     1.900194    37A1     1.900469    30B1     1.900479  
      16A2     1.917240    38A1     1.929152    31B1     1.929206  
      22B2     1.940940    17A2     1.940955    39A1     2.023832  
      32B1     2.023871    33B1     2.047890    40A1     2.161225  
      34B1     2.312081    41A1     2.312128    42A1     4.369903  
      43A1     4.383819    35B1     4.383819    23B2     4.394853  
      18A2     4.396634    24B2     4.396666    44A1     4.403259  
      25B2     4.418193    45A1     4.421640    36B1     4.421665  
      26B2     4.429226    19A2     4.429268    37B1     4.433809  
      20A2     4.472128    46A1     4.492410    38B1     4.492527  
      21A2     4.494896    27B2     4.494987    47A1     4.643637  
      39B1     4.643756    40B1     4.657143    48A1     5.226892  
      49A1     5.227933    41B1     5.227960    42B1     5.228238  
      22A2     5.228650    28B2     5.228703    29B2     5.228834  
      50A1     5.229195    43B1     5.229295    23A2     5.229354  
      30B2     5.229414    24A2     5.229473    51A1     5.230218  
      31B2     5.230480    52A1     5.230904    44B1     5.231016  
      32B2     5.232047    25A2     5.232176    53A1     5.232293  
      45B1     5.232325    54A1     5.232328    26A2     5.232519  
      33B2     5.232651    27A2     5.232662    46B1     5.233582  
      55A1     5.240228    47B1     5.240269    56A1    32.625759  
      57A1    32.957556    48B1    32.957575    58A1   110.369029  
      59A1   110.474498    49B1   110.474501  

    Final Occupation by Irrep:
             A1    A2    B1    B2 
    DOCC [    11,    4,    8,    5 ]

  @DF-RKS Final Energy:  -439.92012074376316

   => Energetics <=

    Nuclear Repulsion Energy =            214.8729337965379784
    One-Electron Energy =               -1200.3159134757772790
    Two-Electron Energy =                 569.3814829981575940
    DFT Exchange-Correlation Energy =     -23.8584950526813557
    Empirical Dispersion Energy =          -0.0001290100000000
    VV10 Nonlocal Energy =                  0.0000000000000000
    Total Energy =                       -439.9201207437631069

Computation Completed


Properties will be evaluated at   0.000000,   0.000000,   0.000000 [a0]

Properties computed using the SCF density matrix

  Nuclear Dipole Moment: [e a0]
     X:     0.0000      Y:    -0.0000      Z:     0.0000

  Electronic Dipole Moment: [e a0]
     X:     0.0000      Y:     0.0000      Z:     0.0002

  Dipole Moment: [e a0]
     X:     0.0000      Y:    -0.0000      Z:     0.0002     Total:     0.0002

  Dipole Moment: [D]
     X:     0.0000      Y:    -0.0000      Z:     0.0005     Total:     0.0005


*** tstop() called on bp1-compute00066.data.bp.acrc.priv at Fri Oct 29 08:40:21 2021
Module time:
	user time   =      62.10 seconds =       1.04 minutes
	system time =       1.90 seconds =       0.03 minutes
	total time  =          6 seconds =       0.10 minutes
Total time:
	user time   =    1105.71 seconds =      18.43 minutes
	system time =      27.34 seconds =       0.46 minutes
	total time  =        158 seconds =       2.63 minutes

*** tstart() called on bp1-compute00066.data.bp.acrc.priv
*** at Fri Oct 29 08:40:21 2021


         ------------------------------------------------------------
                                   SCF GRAD                          
                          Rob Parrish, Justin Turney,                
                       Andy Simmonett, and Alex Sokolov              
         ------------------------------------------------------------

  ==> Geometry <==

    Molecular point group: c2v
    Full point group: C2v

    Geometry (in Angstrom), charge = 1, multiplicity = 1:

       Center              X                  Y                   Z               Mass       
    ------------   -----------------  -----------------  -----------------  -----------------
         AG           0.000000000000    -0.000000000000     1.540017580634   106.905091600000
         AG           1.333458328442     0.000000000000    -0.770008790317   106.905091600000
         AG          -1.333458328442    -0.000000000000    -0.770008790317   106.905091600000

  Nuclear repulsion =  214.872933796537978

  ==> Basis Set <==

  Basis Set: DEF2-TZVPPD
    Blend: DEF2-TZVPPD
    Number of shells: 48
    Number of basis function: 168
    Number of Cartesian functions: 213
    Spherical Harmonics?: true
    Max angular momentum: 4

  Core potential: DEF2-TZVPPD
    Number of shells: 12
    Number of ECP primitives: 42
    Number of ECP core electrons: 84
    Max angular momentum: 3

  ==> DFJKGrad: Density-Fitted SCF Gradients <==

    Gradient:                    1
    J tasked:                  Yes
    K tasked:                  Yes
    wK tasked:                  No
    OpenMP threads:             24
    Integrals threads:          24
    Memory [MiB]:           102996
    Schwarz Cutoff:          0E+00
    Fitting Condition:       1E-10

   => Auxiliary Basis Set <=

  Basis Set: (DEF2-TZVPPD AUX)
    Blend: DEF2-TZVPP-JKFIT
    Number of shells: 147
    Number of basis function: 765
    Number of Cartesian functions: 1152
    Spherical Harmonics?: true
    Max angular momentum: 6

  ==> DFT Potential <==

   => Composite Functional: MN15-D3BJ <= 

   MN15 Hybrid Meta-GGA Exchange-Correlation Functional

    H. S. Yu, X. He, S. L. Li, and D. G. Truhlar, Chem. Sci. 7, 5032-5051, 2016


    Deriv               =              1
    GGA                 =           TRUE
    Meta                =           TRUE

    Exchange Hybrid     =           TRUE
    MP2 Hybrid          =          FALSE

   => Exchange Functionals <=

    1.0000   XC_HYB_MGGA_X_MN15

   => Exact (HF) Exchange <=

    0.4400               HF 

   => Correlation Functionals <=

    1.0000   XC_MGGA_C_MN15

   => Molecular Quadrature <=

    Radial Scheme          =       TREUTLER
    Pruning Scheme         =           FLAT
    Nuclear Scheme         =       TREUTLER

    BS radius alpha        =              1
    Pruning alpha          =              1
    Radial Points          =             75
    Spherical Points       =            302
    Total Points           =          67397
    Total Blocks           =            591
    Max Points             =            256
    Max Functions          =            166


  -Total Gradient:
     Atom            X                  Y                   Z
    ------   -----------------  -----------------  -----------------
       1        0.000000000000    -0.000000000000    -0.166040220266
       2       -0.143856047957    -0.000000000000     0.083077731948
       3        0.143856047957     0.000000000000     0.083077731948


*** tstop() called on bp1-compute00066.data.bp.acrc.priv at Fri Oct 29 08:40:26 2021
Module time:
	user time   =      45.49 seconds =       0.76 minutes
	system time =       2.74 seconds =       0.05 minutes
	total time  =          5 seconds =       0.08 minutes
Total time:
	user time   =    1152.35 seconds =      19.21 minutes
	system time =      30.17 seconds =       0.50 minutes
	total time  =        163 seconds =       2.72 minutes


  ==> Adding ECP gradient terms (computed numerically) <==

  -ECP Gradient:
     Atom            X                  Y                   Z
    ------   -----------------  -----------------  -----------------
       1        0.000000000000    -0.000000000000     0.164890696913
       2        0.142861320794     0.000000000000    -0.082445348362
       3       -0.142861320794    -0.000000000000    -0.082445348362


  -Total Gradient:
     Atom            X                  Y                   Z
    ------   -----------------  -----------------  -----------------
       1        0.000000000000    -0.000000000000    -0.001149523353
       2       -0.000994727163    -0.000000000000     0.000632383586
       3        0.000994727163     0.000000000000     0.000632383586


			-----------------------------------------
			 OPTKING 2.0: for geometry optimizations 
			  - R.A. King,  Bethel University        
			-----------------------------------------
	At level 1: Red. Int., RFO, no backsteps, dynamic trust

	Previous internal coordinate definitions found.
	---Fragment 1 Geometry and Gradient---
	 AG          0.0000000000       -0.0000000000        2.9102114558
	 AG          2.5198710405        0.0000000000       -1.4551057279
	 AG         -2.5198710405       -0.0000000000       -1.4551057279
	             0.0000000000       -0.0000000000       -0.0011495234
	            -0.0009947272       -0.0000000000        0.0006323836
	             0.0009947272        0.0000000000        0.0006323836

	---Fragment 1 Intrafragment Coordinates---
	 - Coordinate -           - BOHR/RAD -       - ANG/DEG -
	 R(1,2)           =         5.040411	       2.667271
	 R(1,3)           =         5.040411	       2.667271
	 R(2,3)           =         5.039742	       2.666917
	 B(1,2,3)         =         1.047274	      60.004391
	 B(1,3,2)         =         1.047274	      60.004391
	 B(2,1,3)         =         1.047044	      59.991219

	Current energy   :      -439.9201207438

	Energy change for the previous step:
		Projected    :        -0.0002218007
		Actual       :        -0.0001420934

	Performing BFGS update.
	Previous computed or guess Hessian on step 1.
	Steps to be used in Hessian update: 1
	Taking RFO optimization step.
	Going to follow RFO solution 1.
	Using RFO vector 1.
	Norm of target step-size    0.02438
	Projected energy change by RFO approximation:        -0.0000291673

	Back-transformation to cartesian coordinates...
	Successfully converged to displaced geometry.

	--- Internal Coordinate Step in ANG or DEG, aJ/ANG or AJ/DEG ---
	 ---------------------------------------------------------------------------
	   Coordinate                Previous        Force       Change         New 
	   ----------                --------       ------       ------       ------
	    1 R(1,2)          =      2.667271     0.005641     0.007536     2.674806
	    2 R(1,3)          =      2.667271     0.005641     0.007536     2.674806
	    3 R(2,3)          =      2.666917     0.005390     0.007274     2.674190
	    4 B(1,2,3)        =     60.004391     0.000000     0.003226    60.007616
	    5 B(1,3,2)        =     60.004391     0.000000     0.003226    60.007616
	    6 B(2,1,3)        =     59.991219    -0.000001    -0.006451    59.984767
	 ---------------------------------------------------------------------------
	Successfully symmetrized geometry.

  ==> Convergence Check <==

  Measures of convergence in internal coordinates in au.
  Criteria marked as inactive (o), active & met (*), and active & unmet ( ).
  ---------------------------------------------------------------------------------------------
   Step     Total Energy     Delta E     MAX Force     RMS Force      MAX Disp      RMS Disp   
  ---------------------------------------------------------------------------------------------
    Convergence Criteria    1.00e-06 *    3.00e-04 *             o    1.20e-03 *             o
  ---------------------------------------------------------------------------------------------
      2    -439.92012074   -1.42e-04      6.85e-04      4.77e-04 o    1.42e-02      9.95e-03 o  ~
  ---------------------------------------------------------------------------------------------

	Writing optimization data to binary file.
	Structure for next step:
	Cartesian Geometry (in Angstrom)
	   AG     0.0000000000  -0.0000000000   1.5444186041
	   AG     1.3370951723   0.0000000000  -0.7722093020
	   AG    -1.3370951723  -0.0000000000  -0.7722093020
			--------------------------
			 OPTKING Finished Execution 
			--------------------------

    Structure for next step:
    Molecular point group: c2v
    Full point group: C2v

    Geometry (in Angstrom), charge = 1, multiplicity = 1:

    AG           0.000000000000     0.000000000000     1.544418610153
    AG           1.337095177567     0.000000000000    -0.772209305076
    AG          -1.337095177567    -0.000000000000    -0.772209305076

gradient() will perform analytic gradient computation.

*** tstart() called on bp1-compute00066.data.bp.acrc.priv
*** at Fri Oct 29 08:42:44 2021

   => Loading Basis Set <=

    Name: DEF2-TZVPPD
    Role: ORBITAL
    Keyword: BASIS
    atoms 1-3 entry AG         line  2174 (ECP: line  3646) file /work/zw18965/.conda/envs/p4env/share/psi4/basis/def2-tzvppd.gbs 

    !!!  WARNING: ECP capability is in beta. Please check occupations closely.  !!!


         ---------------------------------------------------------
                                   SCF
               by Justin Turney, Rob Parrish, Andy Simmonett
                          and Daniel G. A. Smith
                              RKS Reference
                       24 Threads, 137329 MiB Core
         ---------------------------------------------------------

  ==> Geometry <==

    Molecular point group: c2v
    Full point group: C2v

    Geometry (in Angstrom), charge = 1, multiplicity = 1:

       Center              X                  Y                   Z               Mass       
    ------------   -----------------  -----------------  -----------------  -----------------
         AG           0.000000000000     0.000000000000     1.544418610153   106.905091600000
         AG           1.337095177567     0.000000000000    -0.772209305076   106.905091600000
         AG          -1.337095177567    -0.000000000000    -0.772209305076   106.905091600000

  Running in c2v symmetry.

  Rotational constants: A =      0.04410  B =      0.04407  C =      0.02204 [cm^-1]
  Rotational constants: A =   1322.09958  B =   1321.28802  C =    660.84684 [MHz]
  Nuclear repulsion =  214.274554579509584

  Charge       = 1
  Multiplicity = 1
  Electrons    = 56
  Nalpha       = 28
  Nbeta        = 28

  ==> Algorithm <==

  SCF Algorithm Type is DF.
  DIIS enabled.
  MOM disabled.
  Fractional occupation disabled.
  Guess Type is READ.
  Energy threshold   = 1.00e-08
  Density threshold  = 1.00e-08
  Integral threshold = 0.00e+00

  ==> Primary Basis <==

  Basis Set: DEF2-TZVPPD
    Blend: DEF2-TZVPPD
    Number of shells: 48
    Number of basis function: 168
    Number of Cartesian functions: 213
    Spherical Harmonics?: true
    Max angular momentum: 4

  Core potential: DEF2-TZVPPD
    Number of shells: 12
    Number of ECP primitives: 42
    Number of ECP core electrons: 84
    Max angular momentum: 3

  ==> DFT Potential <==

   => Composite Functional: MN15-D3BJ <= 

   MN15 Hybrid Meta-GGA Exchange-Correlation Functional

    H. S. Yu, X. He, S. L. Li, and D. G. Truhlar, Chem. Sci. 7, 5032-5051, 2016


    Deriv               =              1
    GGA                 =           TRUE
    Meta                =           TRUE

    Exchange Hybrid     =           TRUE
    MP2 Hybrid          =          FALSE

   => Exchange Functionals <=

    1.0000   XC_HYB_MGGA_X_MN15

   => Exact (HF) Exchange <=

    0.4400               HF 

   => Correlation Functionals <=

    1.0000   XC_MGGA_C_MN15

   => Molecular Quadrature <=

    Radial Scheme          =       TREUTLER
    Pruning Scheme         =           FLAT
    Nuclear Scheme         =       TREUTLER

    BS radius alpha        =              1
    Pruning alpha          =              1
    Radial Points          =             75
    Spherical Points       =            302
    Total Points           =          67397
    Total Blocks           =            592
    Max Points             =            256
    Max Functions          =            166

   => MN15-D3(BJ): Empirical Dispersion <=

    Grimme's -D3 (BJ-damping) Dispersion Correction
    Grimme S.; Ehrlich S.; Goerigk L. (2011), J. Comput. Chem., 32: 1456
    Parametrisation from:    L. Goerigk, A. Hansen, C. Bauer, S. Ehrlich, A. Najibi, S. Grimme, Phys. Chem. Chem. Phys. 19, 32184-32215, 2017

        s6 =       1.000000
        s8 =       2.097100
        a1 =       0.786200
        a2 =       7.592300

   => Loading Basis Set <=

    Name: (DEF2-TZVPPD AUX)
    Role: JKFIT
    Keyword: DF_BASIS_SCF
    atoms 1-3 entry AG         line  4369 file /work/zw18965/.conda/envs/p4env/share/psi4/basis/def2-tzvpp-jkfit.gbs 

   => Loading Basis Set <=

    Name: DEF2-TZVPPD
    Role: ORBITAL
    Keyword: BASIS
    atoms 1-3 entry AG         line  2174 (ECP: line  3646) file /work/zw18965/.conda/envs/p4env/share/psi4/basis/def2-tzvppd.gbs 

    !!!  WARNING: ECP capability is in beta. Please check occupations closely.  !!!

  Reading orbitals from file 180, no projection.

  ==> Pre-Iterations <==

   -------------------------------------------------------
    Irrep   Nso     Nmo     Nalpha   Nbeta   Ndocc  Nsocc
   -------------------------------------------------------
     A1        59      59       0       0       0       0
     A2        27      27       0       0       0       0
     B1        49      49       0       0       0       0
     B2        33      33       0       0       0       0
   -------------------------------------------------------
    Total     168     168      28      28      28       0
   -------------------------------------------------------

  ==> Integral Setup <==

  DFHelper Memory: AOs need 0.176 GiB; user supplied 99.987 GiB. Using in-core AOs.

  ==> MemDFJK: Density-Fitted J/K Matrices <==

    J tasked:                   Yes
    K tasked:                   Yes
    wK tasked:                   No
    OpenMP threads:              24
    Memory [MiB]:            102386
    Algorithm:                 Core
    Schwarz Cutoff:           1E-12
    Mask sparsity (%):       1.3039
    Fitting Condition:        1E-10

   => Auxiliary Basis Set <=

  Basis Set: (DEF2-TZVPPD AUX)
    Blend: DEF2-TZVPP-JKFIT
    Number of shells: 147
    Number of basis function: 765
    Number of Cartesian functions: 1152
    Spherical Harmonics?: true
    Max angular momentum: 6

  Cached 100.0% of DFT collocation blocks in 0.596 [GiB].

  Minimum eigenvalue in the overlap matrix is 3.0378491120E-03.
  Using Symmetric Orthogonalization.

  SCF Guess: Orbitals guess was supplied from a previous computation.

  ==> Iterations <==

                           Total Energy        Delta E     RMS |[F,P]|

   @DF-RKS iter   0:  -439.91957724629424   -4.39920e+02   1.90973e-04 
   @DF-RKS iter   1:  -439.92013538795976   -5.58142e-04   6.60915e-06 DIIS
   @DF-RKS iter   2:  -439.92013553381594   -1.45856e-07   4.10914e-06 DIIS
   @DF-RKS iter   3:  -439.92013556423365   -3.04177e-08   1.58125e-06 DIIS
   @DF-RKS iter   4:  -439.92013556963656   -5.40291e-09   3.27118e-07 DIIS
   @DF-RKS iter   5:  -439.92013557014349   -5.06930e-10   1.31873e-07 DIIS
   @DF-RKS iter   6:  -439.92013557021096   -6.74731e-11   5.25345e-08 DIIS
   @DF-RKS iter   7:  -439.92013557022369   -1.27329e-11   5.25988e-09 DIIS
  Energy and wave function converged.


  ==> Post-Iterations <==

    Orbital Energies [Eh]
    ---------------------

    Doubly Occupied:                                                      

       1A1    -3.842378     2A1    -3.841838     1B1    -3.841836  
       3A1    -2.496459     2B1    -2.494351     4A1    -2.494351  
       3B1    -2.491240     1B2    -2.490858     2B2    -2.490247  
       1A2    -2.490244     4B1    -2.490122     5A1    -2.490116  
       6A1    -0.614447     7A1    -0.599122     5B1    -0.599092  
       3B2    -0.594784     8A1    -0.580963     4B2    -0.577750  
       2A2    -0.577732     9A1    -0.558032     6B1    -0.558010  
       3A2    -0.554555     5B2    -0.551398     4A2    -0.551380  
      10A1    -0.550708     7B1    -0.550700     8B1    -0.531766  
      11A1    -0.457529  

    Virtual:                                                              

      12A1    -0.248271     9B1    -0.248243     6B2    -0.178414  
      13A1    -0.130300    14A1    -0.124077    10B1    -0.124068  
       7B2    -0.074208     5A2    -0.074183    15A1    -0.003463  
      11B1    -0.003447    12B1    -0.002810    16A1     0.008395  
      17A1     0.060341     8B2     0.067229    18A1     0.077880  
      13B1     0.077881    19A1     0.085283    14B1     0.085292  
       9B2     0.120619     6A2     0.120639    15B1     0.180557  
      20A1     0.216201    21A1     0.227785    16B1     0.227855  
      10B2     0.254806     7A2     0.254808    11B2     0.270132  
      22A1     0.364039    17B1     0.364047     8A2     0.408182  
      23A1     0.430957    12B2     0.461777     9A2     0.461794  
      18B1     0.469277    24A1     0.469308    19B1     0.543166  
      25A1     0.543169    20B1     0.599803    26A1     1.291310  
      21B1     1.291544    27A1     1.326067    28A1     1.333241  
      13B2     1.360377    14B2     1.361600    10A2     1.361641  
      29A1     1.386677    22B1     1.386738    15B2     1.388621  
      16B2     1.401191    11A2     1.401207    23B1     1.402910  
      17B2     1.416583    12A2     1.416627    30A1     1.430356  
      24B1     1.430434    13A2     1.446245    31A1     1.456461  
      25B1     1.456544    18B2     1.459875    32A1     1.496869  
      26B1     1.496928    27B1     1.503816    33A1     1.542095  
      19B2     1.549228    14A2     1.549239    28B1     1.579272  
      34A1     1.579273    29B1     1.725228    35A1     1.761618  
      36A1     1.858876    20B2     1.868612    15A2     1.868723  
      37A1     1.900918    30B1     1.900940    21B2     1.901335  
      16A2     1.917142    38A1     1.930911    31B1     1.931013  
      22B2     1.940750    17A2     1.940778    39A1     2.021025  
      32B1     2.021135    33B1     2.044250    40A1     2.161356  
      34B1     2.310164    41A1     2.310214    42A1     4.371998  
      43A1     4.384566    35B1     4.384582    23B2     4.396313  
      18A2     4.397849    24B2     4.397857    44A1     4.403785  
      25B2     4.418724    45A1     4.422046    36B1     4.422082  
      26B2     4.429339    19A2     4.429391    37B1     4.433772  
      20A2     4.471073    46A1     4.490996    38B1     4.491172  
      21A2     4.493584    27B2     4.493637    47A1     4.640832  
      39B1     4.641016    40B1     4.653596    48A1     5.227259  
      49A1     5.228253    41B1     5.228279    42B1     5.228465  
      22A2     5.228980    28B2     5.229034    29B2     5.229167  
      50A1     5.229509    43B1     5.229614    23A2     5.229643  
      30B2     5.229726    24A2     5.229792    51A1     5.230490  
      31B2     5.230789    52A1     5.231156    44B1     5.231271  
      32B2     5.232298    25A2     5.232429    53A1     5.232546  
      45B1     5.232574    54A1     5.232577    26A2     5.232765  
      33B2     5.232898    27A2     5.232906    46B1     5.233712  
      55A1     5.240286    47B1     5.240331    56A1    32.623085  
      57A1    32.954206    48B1    32.954239    58A1   110.368408  
      59A1   110.473641    49B1   110.473649  

    Final Occupation by Irrep:
             A1    A2    B1    B2 
    DOCC [    11,    4,    8,    5 ]

  @DF-RKS Final Energy:  -439.92013557022369

   => Energetics <=

    Nuclear Repulsion Energy =            214.2745545795095836
    One-Electron Energy =               -1199.1385601457766370
    Two-Electron Energy =                 568.8013698835192145
    DFT Exchange-Correlation Energy =     -23.8573708774758799
    Empirical Dispersion Energy =          -0.0001290100000000
    VV10 Nonlocal Energy =                  0.0000000000000000
    Total Energy =                       -439.9201355702236924

Computation Completed


Properties will be evaluated at   0.000000,   0.000000,   0.000000 [a0]

Properties computed using the SCF density matrix

  Nuclear Dipole Moment: [e a0]
     X:     0.0000      Y:     0.0000      Z:     0.0000

  Electronic Dipole Moment: [e a0]
     X:     0.0000      Y:     0.0000      Z:     0.0003

  Dipole Moment: [e a0]
     X:     0.0000      Y:     0.0000      Z:     0.0003     Total:     0.0003

  Dipole Moment: [D]
     X:     0.0000      Y:     0.0000      Z:     0.0008     Total:     0.0008


*** tstop() called on bp1-compute00066.data.bp.acrc.priv at Fri Oct 29 08:42:50 2021
Module time:
	user time   =      60.39 seconds =       1.01 minutes
	system time =       2.31 seconds =       0.04 minutes
	total time  =          6 seconds =       0.10 minutes
Total time:
	user time   =    2133.06 seconds =      35.55 minutes
	system time =      50.85 seconds =       0.85 minutes
	total time  =        307 seconds =       5.12 minutes

*** tstart() called on bp1-compute00066.data.bp.acrc.priv
*** at Fri Oct 29 08:42:50 2021


         ------------------------------------------------------------
                                   SCF GRAD                          
                          Rob Parrish, Justin Turney,                
                       Andy Simmonett, and Alex Sokolov              
         ------------------------------------------------------------

  ==> Geometry <==

    Molecular point group: c2v
    Full point group: C2v

    Geometry (in Angstrom), charge = 1, multiplicity = 1:

       Center              X                  Y                   Z               Mass       
    ------------   -----------------  -----------------  -----------------  -----------------
         AG           0.000000000000     0.000000000000     1.544418610153   106.905091600000
         AG           1.337095177567     0.000000000000    -0.772209305076   106.905091600000
         AG          -1.337095177567    -0.000000000000    -0.772209305076   106.905091600000

  Nuclear repulsion =  214.274554579509584

  ==> Basis Set <==

  Basis Set: DEF2-TZVPPD
    Blend: DEF2-TZVPPD
    Number of shells: 48
    Number of basis function: 168
    Number of Cartesian functions: 213
    Spherical Harmonics?: true
    Max angular momentum: 4

  Core potential: DEF2-TZVPPD
    Number of shells: 12
    Number of ECP primitives: 42
    Number of ECP core electrons: 84
    Max angular momentum: 3

  ==> DFJKGrad: Density-Fitted SCF Gradients <==

    Gradient:                    1
    J tasked:                  Yes
    K tasked:                  Yes
    wK tasked:                  No
    OpenMP threads:             24
    Integrals threads:          24
    Memory [MiB]:           102996
    Schwarz Cutoff:          0E+00
    Fitting Condition:       1E-10

   => Auxiliary Basis Set <=

  Basis Set: (DEF2-TZVPPD AUX)
    Blend: DEF2-TZVPP-JKFIT
    Number of shells: 147
    Number of basis function: 765
    Number of Cartesian functions: 1152
    Spherical Harmonics?: true
    Max angular momentum: 6

  ==> DFT Potential <==

   => Composite Functional: MN15-D3BJ <= 

   MN15 Hybrid Meta-GGA Exchange-Correlation Functional

    H. S. Yu, X. He, S. L. Li, and D. G. Truhlar, Chem. Sci. 7, 5032-5051, 2016


    Deriv               =              1
    GGA                 =           TRUE
    Meta                =           TRUE

    Exchange Hybrid     =           TRUE
    MP2 Hybrid          =          FALSE

   => Exchange Functionals <=

    1.0000   XC_HYB_MGGA_X_MN15

   => Exact (HF) Exchange <=

    0.4400               HF 

   => Correlation Functionals <=

    1.0000   XC_MGGA_C_MN15

   => Molecular Quadrature <=

    Radial Scheme          =       TREUTLER
    Pruning Scheme         =           FLAT
    Nuclear Scheme         =       TREUTLER

    BS radius alpha        =              1
    Pruning alpha          =              1
    Radial Points          =             75
    Spherical Points       =            302
    Total Points           =          67397
    Total Blocks           =            592
    Max Points             =            256
    Max Functions          =            166


  -Total Gradient:
     Atom            X                  Y                   Z
    ------   -----------------  -----------------  -----------------
       1        0.000000000000    -0.000000000000    -0.162262888609
       2       -0.140653665824    -0.000000000000     0.081188844018
       3        0.140653665824     0.000000000000     0.081188844018


*** tstop() called on bp1-compute00066.data.bp.acrc.priv at Fri Oct 29 08:42:55 2021
Module time:
	user time   =      47.37 seconds =       0.79 minutes
	system time =       2.76 seconds =       0.05 minutes
	total time  =          5 seconds =       0.08 minutes
Total time:
	user time   =    2181.62 seconds =      36.36 minutes
	system time =      53.68 seconds =       0.89 minutes
	total time  =        312 seconds =       5.20 minutes


  ==> Adding ECP gradient terms (computed numerically) <==

  -ECP Gradient:
     Atom            X                  Y                   Z
    ------   -----------------  -----------------  -----------------
       1        0.000000000000    -0.000000000000     0.162237738325
       2        0.140609035271     0.000000000000    -0.081118869133
       3       -0.140609035271    -0.000000000000    -0.081118869133


  -Total Gradient:
     Atom            X                  Y                   Z
    ------   -----------------  -----------------  -----------------
       1        0.000000000000    -0.000000000000    -0.000025150284
       2       -0.000044630553    -0.000000000000     0.000069974885
       3        0.000044630553     0.000000000000     0.000069974885


			-----------------------------------------
			 OPTKING 2.0: for geometry optimizations 
			  - R.A. King,  Bethel University        
			-----------------------------------------
	At level 1: Red. Int., RFO, no backsteps, dynamic trust

	Previous internal coordinate definitions found.
	---Fragment 1 Geometry and Gradient---
	 AG          0.0000000000        0.0000000000        2.9185281962
	 AG          2.5267436893        0.0000000000       -1.4592640981
	 AG         -2.5267436893       -0.0000000000       -1.4592640981
	             0.0000000000       -0.0000000000       -0.0000251503
	            -0.0000446306       -0.0000000000        0.0000699749
	             0.0000446306        0.0000000000        0.0000699749

	---Fragment 1 Intrafragment Coordinates---
	 - Coordinate -           - BOHR/RAD -       - ANG/DEG -
	 R(1,2)           =         5.054651	       2.674806
	 R(1,3)           =         5.054651	       2.674806
	 R(2,3)           =         5.053487	       2.674190
	 B(1,2,3)         =         1.047330	      60.007616
	 B(1,3,2)         =         1.047330	      60.007616
	 B(2,1,3)         =         1.046932	      59.984767

	Current energy   :      -439.9201355702

	Energy change for the previous step:
		Projected    :        -0.0000291673
		Actual       :        -0.0000148265

	Performing BFGS update.
	Previous computed or guess Hessian on step 1.
	Steps to be used in Hessian update: 2 1
	Taking RFO optimization step.
	Going to follow RFO solution 1.
	Using RFO vector 1.
	Norm of target step-size    0.00122
	Projected energy change by RFO approximation:        -0.0000000793

	Back-transformation to cartesian coordinates...
	Successfully converged to displaced geometry.

	--- Internal Coordinate Step in ANG or DEG, aJ/ANG or AJ/DEG ---
	 ---------------------------------------------------------------------------
	   Coordinate                Previous        Force       Change         New 
	   ----------                --------       ------       ------       ------
	    1 R(1,2)          =      2.674806     0.000299     0.000392     2.675199
	    2 R(1,3)          =      2.674806     0.000299     0.000392     2.675199
	    3 R(2,3)          =      2.674190     0.000223     0.000332     2.674523
	    4 B(1,2,3)        =     60.007616     0.000000     0.000744    60.008361
	    5 B(1,3,2)        =     60.007616     0.000000     0.000744    60.008361
	    6 B(2,1,3)        =     59.984767    -0.000000    -0.001489    59.983278
	 ---------------------------------------------------------------------------
	Successfully symmetrized geometry.

  ==> Convergence Check <==

  Measures of convergence in internal coordinates in au.
  Criteria marked as inactive (o), active & met (*), and active & unmet ( ).
  ---------------------------------------------------------------------------------------------
   Step     Total Energy     Delta E     MAX Force     RMS Force      MAX Disp      RMS Disp   
  ---------------------------------------------------------------------------------------------
    Convergence Criteria    1.00e-06 *    3.00e-04 *             o    1.20e-03 *             o
  ---------------------------------------------------------------------------------------------
      3    -439.92013557   -1.48e-05      3.63e-05 *    2.37e-05 o    7.42e-04 *    4.99e-04 o  ~
  ---------------------------------------------------------------------------------------------


  **** Optimization is complete! (in 3 steps) ****

  ==> Optimization Summary <==

  Measures of convergence in internal coordinates in au.
  --------------------------------------------------------------------------------------------------------------- ~
   Step         Total Energy             Delta E       MAX Force       RMS Force        MAX Disp        RMS Disp  ~
  --------------------------------------------------------------------------------------------------------------- ~
      1    -439.919978650384   -439.919978650384      0.00226252      0.00158613      0.03296931      0.02315637  ~
      2    -439.920120743763     -0.000142093379      0.00068463      0.00047707      0.01424012      0.00995418  ~
      3    -439.920135570224     -0.000014826461      0.00003625      0.00002369      0.00074167      0.00049920  ~
  --------------------------------------------------------------------------------------------------------------- ~

	Writing optimization data to binary file.
	Final energy is   -439.9201355702237
	Final (previous) structure:
	Cartesian Geometry (in Angstrom)
	   AG     0.0000000000   0.0000000000   1.5444186041
	   AG     1.3370951723   0.0000000000  -0.7722093020
	   AG    -1.3370951723  -0.0000000000  -0.7722093020
	Saving final (previous) structure.
			--------------------------
			 OPTKING Finished Execution 
			--------------------------

    Final optimized geometry and variables:
    Molecular point group: c2v
    Full point group: C2v

    Geometry (in Angstrom), charge = 1, multiplicity = 1:

    AG           0.000000000000     0.000000000000     1.544418610153
    AG           1.337095177567     0.000000000000    -0.772209305076
    AG          -1.337095177567    -0.000000000000    -0.772209305076

	Removing binary optimization data file.
	Cleaning optimization helper files.
gradient() will perform analytic gradient computation.

*** tstart() called on bp1-compute00066.data.bp.acrc.priv
*** at Fri Oct 29 08:45:14 2021

   => Loading Basis Set <=

    Name: DEF2-TZVPPD
    Role: ORBITAL
    Keyword: BASIS
    atoms 1-3 entry AG         line  2174 (ECP: line  3646) file /work/zw18965/.conda/envs/p4env/share/psi4/basis/def2-tzvppd.gbs 

    !!!  WARNING: ECP capability is in beta. Please check occupations closely.  !!!


         ---------------------------------------------------------
                                   SCF
               by Justin Turney, Rob Parrish, Andy Simmonett
                          and Daniel G. A. Smith
                              RKS Reference
                       24 Threads, 137329 MiB Core
         ---------------------------------------------------------

  ==> Geometry <==

    Molecular point group: c2v
    Full point group: C2v

    Geometry (in Angstrom), charge = 1, multiplicity = 1:

       Center              X                  Y                   Z               Mass       
    ------------   -----------------  -----------------  -----------------  -----------------
         AG           0.000000000000     0.000000000000     1.544418610153   106.905091600000
         AG           1.337095177567     0.000000000000    -0.772209305076   106.905091600000
         AG          -1.337095177567    -0.000000000000    -0.772209305076   106.905091600000

  Running in c2v symmetry.

  Rotational constants: A =      0.04410  B =      0.04407  C =      0.02204 [cm^-1]
  Rotational constants: A =   1322.09958  B =   1321.28802  C =    660.84684 [MHz]
  Nuclear repulsion =  214.274554579509584

  Charge       = 1
  Multiplicity = 1
  Electrons    = 56
  Nalpha       = 28
  Nbeta        = 28

  ==> Algorithm <==

  SCF Algorithm Type is DF.
  DIIS enabled.
  MOM disabled.
  Fractional occupation disabled.
  Guess Type is SAD.
  Energy threshold   = 1.00e-08
  Density threshold  = 1.00e-08
  Integral threshold = 0.00e+00

  ==> Primary Basis <==

  Basis Set: DEF2-TZVPPD
    Blend: DEF2-TZVPPD
    Number of shells: 48
    Number of basis function: 168
    Number of Cartesian functions: 213
    Spherical Harmonics?: true
    Max angular momentum: 4

  Core potential: DEF2-TZVPPD
    Number of shells: 12
    Number of ECP primitives: 42
    Number of ECP core electrons: 84
    Max angular momentum: 3

  ==> DFT Potential <==

   => Composite Functional: MN15-D3BJ <= 

   MN15 Hybrid Meta-GGA Exchange-Correlation Functional

    H. S. Yu, X. He, S. L. Li, and D. G. Truhlar, Chem. Sci. 7, 5032-5051, 2016


    Deriv               =              1
    GGA                 =           TRUE
    Meta                =           TRUE

    Exchange Hybrid     =           TRUE
    MP2 Hybrid          =          FALSE

   => Exchange Functionals <=

    1.0000   XC_HYB_MGGA_X_MN15

   => Exact (HF) Exchange <=

    0.4400               HF 

   => Correlation Functionals <=

    1.0000   XC_MGGA_C_MN15

   => Molecular Quadrature <=

    Radial Scheme          =       TREUTLER
    Pruning Scheme         =           FLAT
    Nuclear Scheme         =       TREUTLER

    BS radius alpha        =              1
    Pruning alpha          =              1
    Radial Points          =             75
    Spherical Points       =            302
    Total Points           =          67397
    Total Blocks           =            592
    Max Points             =            256
    Max Functions          =            166

   => MN15-D3(BJ): Empirical Dispersion <=

    Grimme's -D3 (BJ-damping) Dispersion Correction
    Grimme S.; Ehrlich S.; Goerigk L. (2011), J. Comput. Chem., 32: 1456
    Parametrisation from:    L. Goerigk, A. Hansen, C. Bauer, S. Ehrlich, A. Najibi, S. Grimme, Phys. Chem. Chem. Phys. 19, 32184-32215, 2017

        s6 =       1.000000
        s8 =       2.097100
        a1 =       0.786200
        a2 =       7.592300

   => Loading Basis Set <=

    Name: (DEF2-TZVPPD AUX)
    Role: JKFIT
    Keyword: DF_BASIS_SCF
    atoms 1-3 entry AG         line  4369 file /work/zw18965/.conda/envs/p4env/share/psi4/basis/def2-tzvpp-jkfit.gbs 

  ==> Pre-Iterations <==

   -------------------------------------------------------
    Irrep   Nso     Nmo     Nalpha   Nbeta   Ndocc  Nsocc
   -------------------------------------------------------
     A1        59      59       0       0       0       0
     A2        27      27       0       0       0       0
     B1        49      49       0       0       0       0
     B2        33      33       0       0       0       0
   -------------------------------------------------------
    Total     168     168      28      28      28       0
   -------------------------------------------------------

  ==> Integral Setup <==

  DFHelper Memory: AOs need 0.176 GiB; user supplied 99.987 GiB. Using in-core AOs.

  ==> MemDFJK: Density-Fitted J/K Matrices <==

    J tasked:                   Yes
    K tasked:                   Yes
    wK tasked:                   No
    OpenMP threads:              24
    Memory [MiB]:            102386
    Algorithm:                 Core
    Schwarz Cutoff:           1E-12
    Mask sparsity (%):       1.3039
    Fitting Condition:        1E-10

   => Auxiliary Basis Set <=

  Basis Set: (DEF2-TZVPPD AUX)
    Blend: DEF2-TZVPP-JKFIT
    Number of shells: 147
    Number of basis function: 765
    Number of Cartesian functions: 1152
    Spherical Harmonics?: true
    Max angular momentum: 6

  Cached 100.0% of DFT collocation blocks in 0.596 [GiB].

  Minimum eigenvalue in the overlap matrix is 3.0378491120E-03.
  Using Symmetric Orthogonalization.

  SCF Guess: Superposition of Atomic Densities via on-the-fly atomic UHF.

  ==> Iterations <==

                           Total Energy        Delta E     RMS |[F,P]|

   @DF-RKS iter SAD:  -439.45021781797334   -4.39450e+02   0.00000e+00 
   @DF-RKS iter   1:  -439.86665495459056   -4.16437e-01   4.95376e-03 DIIS
   @DF-RKS iter   2:  -439.85244909606934    1.42059e-02   5.86105e-03 DIIS
   @DF-RKS iter   3:  -439.91990189034237   -6.74528e-02   2.49150e-04 DIIS
   @DF-RKS iter   4:  -439.92007501494197   -1.73125e-04   1.47027e-04 DIIS
   @DF-RKS iter   5:  -439.92012918045322   -5.41655e-05   3.12629e-05 DIIS
   @DF-RKS iter   6:  -439.92013528174505   -6.10129e-06   7.09179e-06 DIIS
   @DF-RKS iter   7:  -439.92013546433844   -1.82593e-07   6.00270e-06 DIIS
   @DF-RKS iter   8:  -439.92013556499671   -1.00658e-07   6.75261e-07 DIIS
   @DF-RKS iter   9:  -439.92013557013405   -5.13734e-09   9.32286e-08 DIIS
   @DF-RKS iter  10:  -439.92013557021903   -8.49809e-11   4.07914e-08 DIIS
   @DF-RKS iter  11:  -439.92013557022347   -4.43379e-12   8.90322e-09 DIIS
  Energy and wave function converged.


  ==> Post-Iterations <==

    Orbital Energies [Eh]
    ---------------------

    Doubly Occupied:                                                      

       1A1    -3.842378     2A1    -3.841838     1B1    -3.841836  
       3A1    -2.496459     2B1    -2.494351     4A1    -2.494351  
       3B1    -2.491240     1B2    -2.490858     2B2    -2.490247  
       1A2    -2.490244     4B1    -2.490122     5A1    -2.490116  
       6A1    -0.614447     7A1    -0.599122     5B1    -0.599092  
       3B2    -0.594784     8A1    -0.580963     4B2    -0.577750  
       2A2    -0.577732     9A1    -0.558032     6B1    -0.558010  
       3A2    -0.554555     5B2    -0.551398     4A2    -0.551380  
      10A1    -0.550708     7B1    -0.550700     8B1    -0.531766  
      11A1    -0.457530  

    Virtual:                                                              

      12A1    -0.248271     9B1    -0.248243     6B2    -0.178414  
      13A1    -0.130300    14A1    -0.124077    10B1    -0.124068  
       7B2    -0.074208     5A2    -0.074183    15A1    -0.003463  
      11B1    -0.003447    12B1    -0.002810    16A1     0.008395  
      17A1     0.060341     8B2     0.067229    18A1     0.077880  
      13B1     0.077881    19A1     0.085283    14B1     0.085292  
       9B2     0.120619     6A2     0.120639    15B1     0.180557  
      20A1     0.216201    21A1     0.227785    16B1     0.227855  
      10B2     0.254806     7A2     0.254808    11B2     0.270132  
      22A1     0.364039    17B1     0.364047     8A2     0.408182  
      23A1     0.430957    12B2     0.461777     9A2     0.461794  
      18B1     0.469277    24A1     0.469308    19B1     0.543166  
      25A1     0.543169    20B1     0.599803    26A1     1.291310  
      21B1     1.291544    27A1     1.326067    28A1     1.333241  
      13B2     1.360377    14B2     1.361600    10A2     1.361641  
      29A1     1.386677    22B1     1.386737    15B2     1.388621  
      16B2     1.401191    11A2     1.401207    23B1     1.402910  
      17B2     1.416583    12A2     1.416626    30A1     1.430356  
      24B1     1.430434    13A2     1.446245    31A1     1.456461  
      25B1     1.456544    18B2     1.459875    32A1     1.496869  
      26B1     1.496928    27B1     1.503816    33A1     1.542095  
      19B2     1.549228    14A2     1.549239    28B1     1.579272  
      34A1     1.579273    29B1     1.725228    35A1     1.761618  
      36A1     1.858876    20B2     1.868612    15A2     1.868723  
      37A1     1.900918    30B1     1.900940    21B2     1.901335  
      16A2     1.917142    38A1     1.930911    31B1     1.931013  
      22B2     1.940750    17A2     1.940778    39A1     2.021025  
      32B1     2.021135    33B1     2.044250    40A1     2.161356  
      34B1     2.310164    41A1     2.310214    42A1     4.371998  
      43A1     4.384566    35B1     4.384582    23B2     4.396313  
      18A2     4.397849    24B2     4.397857    44A1     4.403785  
      25B2     4.418724    45A1     4.422046    36B1     4.422082  
      26B2     4.429339    19A2     4.429391    37B1     4.433772  
      20A2     4.471073    46A1     4.490996    38B1     4.491172  
      21A2     4.493584    27B2     4.493637    47A1     4.640832  
      39B1     4.641016    40B1     4.653596    48A1     5.227259  
      49A1     5.228253    41B1     5.228279    42B1     5.228465  
      22A2     5.228980    28B2     5.229034    29B2     5.229167  
      50A1     5.229509    43B1     5.229614    23A2     5.229643  
      30B2     5.229726    24A2     5.229792    51A1     5.230490  
      31B2     5.230789    52A1     5.231156    44B1     5.231271  
      32B2     5.232298    25A2     5.232429    53A1     5.232546  
      45B1     5.232574    54A1     5.232576    26A2     5.232765  
      33B2     5.232898    27A2     5.232906    46B1     5.233712  
      55A1     5.240286    47B1     5.240331    56A1    32.623085  
      57A1    32.954206    48B1    32.954239    58A1   110.368408  
      59A1   110.473641    49B1   110.473649  

    Final Occupation by Irrep:
             A1    A2    B1    B2 
    DOCC [    11,    4,    8,    5 ]

  @DF-RKS Final Energy:  -439.92013557022347

   => Energetics <=

    Nuclear Repulsion Energy =            214.2745545795095836
    One-Electron Energy =               -1199.1385634499351909
    Two-Electron Energy =                 568.8013733414155695
    DFT Exchange-Correlation Energy =     -23.8573710312134253
    Empirical Dispersion Energy =          -0.0001290100000000
    VV10 Nonlocal Energy =                  0.0000000000000000
    Total Energy =                       -439.9201355702234082

Computation Completed


Properties will be evaluated at   0.000000,   0.000000,   0.000000 [a0]

Properties computed using the SCF density matrix

  Nuclear Dipole Moment: [e a0]
     X:     0.0000      Y:     0.0000      Z:     0.0000

  Electronic Dipole Moment: [e a0]
     X:     0.0000      Y:     0.0000      Z:     0.0003

  Dipole Moment: [e a0]
     X:     0.0000      Y:     0.0000      Z:     0.0003     Total:     0.0003

  Dipole Moment: [D]
     X:     0.0000      Y:     0.0000      Z:     0.0008     Total:     0.0008


*** tstop() called on bp1-compute00066.data.bp.acrc.priv at Fri Oct 29 08:45:21 2021
Module time:
	user time   =      78.23 seconds =       1.30 minutes
	system time =       2.62 seconds =       0.04 minutes
	total time  =          7 seconds =       0.12 minutes
Total time:
	user time   =    3183.73 seconds =      53.06 minutes
	system time =      74.99 seconds =       1.25 minutes
	total time  =        458 seconds =       7.63 minutes

*** tstart() called on bp1-compute00066.data.bp.acrc.priv
*** at Fri Oct 29 08:45:21 2021


         ------------------------------------------------------------
                                   SCF GRAD                          
                          Rob Parrish, Justin Turney,                
                       Andy Simmonett, and Alex Sokolov              
         ------------------------------------------------------------

  ==> Geometry <==

[...]
    J tasked:                   Yes
    K tasked:                   Yes
    wK tasked:                   No
    OpenMP threads:              24
    Memory [MiB]:            102388
    Algorithm:                 Core
    Schwarz Cutoff:           1E-12
    Mask sparsity (%):       1.3180
    Fitting Condition:        1E-10

   => Auxiliary Basis Set <=

  Basis Set: (DEF2-TZVPPD AUX)
    Blend: DEF2-TZVPP-JKFIT
    Number of shells: 147
    Number of basis function: 765
    Number of Cartesian functions: 1152
    Spherical Harmonics?: true
    Max angular momentum: 6

  Cached 100.0% of DFT collocation blocks in 0.594 [GiB].

  Minimum eigenvalue in the overlap matrix is 3.0375887378E-03.
  Using Symmetric Orthogonalization.

  SCF Guess: Superposition of Atomic Densities via on-the-fly atomic UHF.

  ==> Iterations <==

                           Total Energy        Delta E     RMS |[F,P]|

   @DF-RKS iter SAD:  -439.45027757618544   -4.39450e+02   0.00000e+00 
   @DF-RKS iter   1:  -439.86675404838604   -4.16476e-01   3.51796e-03 DIIS
   @DF-RKS iter   2:  -439.85255383893616    1.42002e-02   4.16135e-03 DIIS
   @DF-RKS iter   3:  -439.91996739004804   -6.74136e-02   1.77646e-04 DIIS
   @DF-RKS iter   4:  -439.92014068927807   -1.73299e-04   1.04895e-04 DIIS
   @DF-RKS iter   5:  -439.92019522855497   -5.45393e-05   2.23856e-05 DIIS
   @DF-RKS iter   6:  -439.92020131122229   -6.08267e-06   6.51027e-06 DIIS
   @DF-RKS iter   7:  -439.92020154834262   -2.37120e-07   4.39443e-06 DIIS
   @DF-RKS iter   8:  -439.92020167021559   -1.21873e-07   4.64390e-07 DIIS
   @DF-RKS iter   9:  -439.92020167533531   -5.11972e-09   9.07268e-08 DIIS
   @DF-RKS iter  10:  -439.92020167543910   -1.03796e-10   4.03015e-08 DIIS
   @DF-RKS iter  11:  -439.92020167545058   -1.14824e-11   5.20890e-09 DIIS
  Energy and wave function converged.


  ==> Post-Iterations <==

    Orbital Energies [Eh]
    ---------------------

    Doubly Occupied:                                                      

       1Ap    -3.842380     2Ap    -3.841840     3Ap    -3.841839  
       4Ap    -2.496458     5Ap    -2.494360     6Ap    -2.494355  
       7Ap    -2.491248     1App   -2.490862     2App   -2.490252  
       3App   -2.490245     8Ap    -2.490123     9Ap    -2.490117  
      10Ap    -0.614451    11Ap    -0.599123    12Ap    -0.599082  
       4App   -0.594791    13Ap    -0.580963     5App   -0.577760  
       6App   -0.577736    14Ap    -0.558039    15Ap    -0.558013  
       7App   -0.554562     8App   -0.551405     9App   -0.551385  
      16Ap    -0.550716    17Ap    -0.550698    18Ap    -0.531765  
      19Ap    -0.457519  

    Virtual:                                                              

      20Ap    -0.248278    21Ap    -0.248242    10App   -0.178413  
      22Ap    -0.130295    23Ap    -0.124078    24Ap    -0.124067  
      11App   -0.074214    12App   -0.074183    25Ap    -0.003468  
      26Ap    -0.003445    27Ap    -0.002811    28Ap     0.008393  
      29Ap     0.060346    13App    0.067229    30Ap     0.077879  
      31Ap     0.077881    32Ap     0.085283    33Ap     0.085296  
      14App    0.120615    15App    0.120641    34Ap     0.180556  
      35Ap     0.216202    36Ap     0.227756    37Ap     0.227858  
      16App    0.254805    17App    0.254809    18App    0.270136  
      38Ap     0.364036    39Ap     0.364049    19App    0.408175  
      40Ap     0.430984    20App    0.461757    21App    0.461792  
      41Ap     0.469291    42Ap     0.469314    43Ap     0.543154  
      44Ap     0.543190    45Ap     0.599803    46Ap     1.291292  
      47Ap     1.291565    48Ap     1.326090    49Ap     1.333242  
      22App    1.360387    23App    1.361580    24App    1.361655  
      50Ap     1.386710    51Ap     1.386762    25App    1.388604  
      26App    1.401151    27App    1.401215    52Ap     1.402956  
      28App    1.416554    29App    1.416632    53Ap     1.430365  
      54Ap     1.430456    30App    1.446233    55Ap     1.456427  
      56Ap     1.456531    31App    1.459893    57Ap     1.496864  
      58Ap     1.496918    59Ap     1.503792    60Ap     1.542095  
      32App    1.549225    33App    1.549280    61Ap     1.579276  
      62Ap     1.579300    63Ap     1.725241    64Ap     1.761632  
      65Ap     1.858930    34App    1.868676    35App    1.868714  
      66Ap     1.900952    67Ap     1.900999    36App    1.901355  
      37App    1.917167    68Ap     1.930903    69Ap     1.931034  
      38App    1.940748    39App    1.940800    70Ap     2.020955  
      71Ap     2.021153    72Ap     2.044216    73Ap     2.161495  
      74Ap     2.310123    75Ap     2.310204    76Ap     4.372043  
      77Ap     4.384491    78Ap     4.384615    40App    4.396313  
      41App    4.397776    42App    4.397906    79Ap     4.403771  
      43App    4.418675    80Ap     4.422005    81Ap     4.422119  
      44App    4.429254    45App    4.429382    82Ap     4.433765  
      46App    4.471051    83Ap     4.491040    84Ap     4.491224  
      47App    4.493529    48App    4.493679    85Ap     4.640736  
      86Ap     4.640976    87Ap     4.653551    88Ap     5.227244  
      89Ap     5.228249    90Ap     5.228285    91Ap     5.228499  
      49App    5.228941    50App    5.229059    51App    5.229118  
      92Ap     5.229579    93Ap     5.229621    52App    5.229666  
      53App    5.229755    54App    5.229810    94Ap     5.230532  
      55App    5.230783    95Ap     5.231256    96Ap     5.231288  
      56App    5.232399    97Ap     5.232473    98Ap     5.232518  
      57App    5.232527    99Ap     5.232654    58App    5.232792  
      59App    5.232907    60App    5.232910   100Ap     5.233775  
     101Ap     5.240322   102Ap     5.240398   103Ap    32.623081  
     104Ap    32.954197   105Ap    32.954233   106Ap   110.368408  
     107Ap   110.473639   108Ap   110.473650  

    Final Occupation by Irrep:
             Ap   App 
    DOCC [    19,    9 ]

  @DF-RKS Final Energy:  -439.92020167545058

   => Energetics <=

    Nuclear Repulsion Energy =            214.2745550693292387
    One-Electron Energy =               -1199.1385467463715031
    Two-Electron Energy =                 568.8013622787925669
    DFT Exchange-Correlation Energy =     -23.8574432672008605
    Empirical Dispersion Energy =          -0.0001290100000000
    VV10 Nonlocal Energy =                  0.0000000000000000
    Total Energy =                       -439.9202016754505280

Computation Completed


Properties will be evaluated at   0.000000,   0.000000,   0.000000 [a0]

Properties computed using the SCF density matrix

  Nuclear Dipole Moment: [e a0]
     X:    -0.0000      Y:     0.0000      Z:     0.0000

  Electronic Dipole Moment: [e a0]
     X:     0.0002      Y:     0.0000      Z:     0.0003

  Dipole Moment: [e a0]
     X:     0.0002      Y:     0.0000      Z:     0.0003     Total:     0.0004

  Dipole Moment: [D]
     X:     0.0005      Y:     0.0000      Z:     0.0007     Total:     0.0009


*** tstop() called on bp1-compute00066.data.bp.acrc.priv at Fri Oct 29 09:00:28 2021
Module time:
	user time   =      80.66 seconds =       1.34 minutes
	system time =       2.57 seconds =       0.04 minutes
	total time  =          7 seconds =       0.12 minutes
Total time:
	user time   =    9478.51 seconds =     157.98 minutes
	system time =     221.29 seconds =       3.69 minutes
	total time  =       1365 seconds =      22.75 minutes

*** tstart() called on bp1-compute00066.data.bp.acrc.priv
*** at Fri Oct 29 09:00:28 2021


         ------------------------------------------------------------
                                   SCF GRAD                          
                          Rob Parrish, Justin Turney,                
                       Andy Simmonett, and Alex Sokolov              
         ------------------------------------------------------------

  ==> Geometry <==

    Molecular point group: cs
    Full point group: Cs

    Geometry (in Angstrom), charge = 1, multiplicity = 1:

       Center              X                  Y                   Z               Mass       
    ------------   -----------------  -----------------  -----------------  -----------------
         AG          -0.000147721816     0.000000000000     1.544418610153   106.905091600000
         AG           1.337169038475     0.000000000000    -0.772337275204   106.905091600000
         AG          -1.337021316660     0.000000000000    -0.772081334949   106.905091600000

  Nuclear repulsion =  214.274555069329239

  ==> Basis Set <==

  Basis Set: DEF2-TZVPPD
    Blend: DEF2-TZVPPD
    Number of shells: 48
    Number of basis function: 168
    Number of Cartesian functions: 213
    Spherical Harmonics?: true
    Max angular momentum: 4

  Core potential: DEF2-TZVPPD
    Number of shells: 12
    Number of ECP primitives: 42
    Number of ECP core electrons: 84
    Max angular momentum: 3

  ==> DFJKGrad: Density-Fitted SCF Gradients <==

    Gradient:                    1
    J tasked:                  Yes
    K tasked:                  Yes
    wK tasked:                  No
    OpenMP threads:             24
    Integrals threads:          24
    Memory [MiB]:           102996
    Schwarz Cutoff:          0E+00
    Fitting Condition:       1E-10

   => Auxiliary Basis Set <=

  Basis Set: (DEF2-TZVPPD AUX)
    Blend: DEF2-TZVPP-JKFIT
    Number of shells: 147
    Number of basis function: 765
    Number of Cartesian functions: 1152
    Spherical Harmonics?: true
    Max angular momentum: 6

  ==> DFT Potential <==

   => Composite Functional: MN15-D3BJ <= 

   MN15 Hybrid Meta-GGA Exchange-Correlation Functional

    H. S. Yu, X. He, S. L. Li, and D. G. Truhlar, Chem. Sci. 7, 5032-5051, 2016


    Deriv               =              1
    GGA                 =           TRUE
    Meta                =           TRUE

    Exchange Hybrid     =           TRUE
    MP2 Hybrid          =          FALSE

   => Exchange Functionals <=

    1.0000   XC_HYB_MGGA_X_MN15

   => Exact (HF) Exchange <=

    0.4400               HF 

   => Correlation Functionals <=

    1.0000   XC_MGGA_C_MN15

   => Molecular Quadrature <=

    Radial Scheme          =       TREUTLER
    Pruning Scheme         =           FLAT
    Nuclear Scheme         =       TREUTLER

    BS radius alpha        =              1
    Pruning alpha          =              1
    Radial Points          =             75
    Spherical Points       =            302
    Total Points           =          67401
    Total Blocks           =            586
    Max Points             =            255
    Max Functions          =            165


  -Total Gradient:
     Atom            X                  Y                   Z
    ------   -----------------  -----------------  -----------------
       1       -0.000016583745     0.000000000000    -0.162137186770
       2       -0.140563962613     0.000000000000     0.081010079673
       3        0.140552666903     0.000000000000     0.081171846857


*** tstop() called on bp1-compute00066.data.bp.acrc.priv at Fri Oct 29 09:00:34 2021
Module time:
	user time   =      46.74 seconds =       0.78 minutes
	system time =       3.29 seconds =       0.05 minutes
	total time  =          6 seconds =       0.10 minutes
Total time:
	user time   =    9526.80 seconds =     158.78 minutes
	system time =     224.66 seconds =       3.74 minutes
	total time  =       1371 seconds =      22.85 minutes


  ==> Adding ECP gradient terms (computed numerically) <==

  -ECP Gradient:
     Atom            X                  Y                   Z
    ------   -----------------  -----------------  -----------------
       1        0.000040951302     0.000000000000     0.162234051568
       2        0.140586996871     0.000000000000    -0.081083089481
       3       -0.140627947568     0.000000000000    -0.081150962690


  -Total Gradient:
     Atom            X                  Y                   Z
    ------   -----------------  -----------------  -----------------
       1        0.000024367557     0.000000000000     0.000096864797
       2        0.000023034258     0.000000000000    -0.000073009808
       3       -0.000075280666     0.000000000000     0.000020884167


         ----------------------------------------------------------
                                   FINDIF
                     R. A. King and Jonathon Misiewicz
         ---------------------------------------------------------

  Computing second-derivative from gradients using projected, 
  symmetry-adapted, cartesian coordinates.

  6 gradients passed in, including the reference geometry.
  Generating complete list of displacements from unique ones.

    Operation 2 takes plus displacements of irrep B1 to minus ones.

-------------------------------------------------------------


  ==> Harmonic Vibrational Analysis <==

  non-mass-weighted Hessian:       Symmetric? True   Hermitian? True   Lin Dep Dim?  6 (0)
  projection of translations (True) and rotations (True) removed 6 degrees of freedom (6)
  total projector:                 Symmetric? True   Hermitian? True   Lin Dep Dim?  6 (6)
  mass-weighted Hessian:           Symmetric? True   Hermitian? True   Lin Dep Dim?  6 (0)
  pre-proj  low-frequency mode:    0.0000i [cm^-1]
  pre-proj  low-frequency mode:    0.0000i [cm^-1]
  pre-proj  low-frequency mode:    0.0000i [cm^-1]
  pre-proj  low-frequency mode:    0.0000  [cm^-1]
  pre-proj  low-frequency mode:    0.0000  [cm^-1]
  pre-proj  low-frequency mode:    0.0000  [cm^-1]
  pre-proj  low-frequency mode:   95.4058  [cm^-1]
  pre-proj  all modes:['0.0000i' '0.0000i' '0.0000i' '0.0000' '0.0000' '0.0000' '95.4058'
 '125.7149' '182.3472']
  projected mass-weighted Hessian: Symmetric? True   Hermitian? True   Lin Dep Dim?  6 (6)
  post-proj low-frequency mode:    0.0000i [cm^-1] (TR)
  post-proj low-frequency mode:    0.0000i [cm^-1] (TR)
  post-proj low-frequency mode:    0.0000i [cm^-1] (TR)
  post-proj low-frequency mode:    0.0000  [cm^-1] (TR)
  post-proj low-frequency mode:    0.0000  [cm^-1] (TR)
  post-proj low-frequency mode:    0.0000  [cm^-1] (TR)
  post-proj low-frequency mode:   95.4058  [cm^-1] (V)
  post-proj  all modes:['0.0000i' '0.0000i' '0.0000i' '0.0000' '0.0000' '0.0000' '95.4058'
 '125.7149' '182.3472']

  Vibration                       7                   8                   9           
  Freq [cm^-1]                 95.4058             125.7149            182.3472       
  Irrep                           B1                  A1                  A1          
  Reduced mass [u]             106.9051            106.9051            106.9051       
  Force const [mDyne/A]         0.5733              0.9955              2.0943        
  Turning point v=0 [a0]        0.1086              0.0946              0.0786        
  RMS dev v=0 [a0 u^1/2]        0.7943              0.6920              0.5746        
  Char temp [K]                137.2678            180.8758            262.3570       
  ----------------------------------------------------------------------------------
      1   AG               0.58 -0.00 -0.00   -0.00  0.00  0.57    0.00  0.00  0.58   
      2   AG              -0.29  0.00  0.50   -0.50 -0.00 -0.29    0.50 -0.00 -0.29   
      3   AG              -0.29 -0.00 -0.50    0.50  0.00 -0.29   -0.50  0.00 -0.29   

  ==> Thermochemistry Components <==

  Entropy, S
    Electronic S            0.000 [cal/(mol K)]        0.000 [J/(mol K)]       0.00000000 [mEh/K] (multiplicity = 1)
    Translational S        43.192 [cal/(mol K)]      180.714 [J/(mol K)]       0.06883047 [mEh/K] (mol. weight = 320.7153 [u], P = 101325.00 [Pa])
    Rotational S           28.633 [cal/(mol K)]      119.802 [J/(mol K)]       0.04563020 [mEh/K] (symmetry no. = 2)
    Vibrational S           8.861 [cal/(mol K)]       37.074 [J/(mol K)]       0.01412072 [mEh/K]
  Total S                  80.686 [cal/(mol K)]      337.590 [J/(mol K)]       0.12858139 [mEh/K]
  Correction S              0.000 [cal/(mol K)]        0.000 [J/(mol K)]       0.00000000 [mEh/K]

  Constant volume heat capacity, Cv
    Electronic Cv           0.000 [cal/(mol K)]        0.000 [J/(mol K)]       0.00000000 [mEh/K]
    Translational Cv        2.981 [cal/(mol K)]       12.472 [J/(mol K)]       0.00475022 [mEh/K]
    Rotational Cv           2.981 [cal/(mol K)]       12.472 [J/(mol K)]       0.00475022 [mEh/K]
    Vibrational Cv          5.744 [cal/(mol K)]       24.031 [J/(mol K)]       0.00915305 [mEh/K]
  Total Cv                 11.705 [cal/(mol K)]       48.975 [J/(mol K)]       0.01865348 [mEh/K]
  Correction Cv             0.000 [cal/(mol K)]        0.000 [J/(mol K)]       0.00000000 [mEh/K]

  Constant pressure heat capacity, Cp
    Electronic Cp           0.000 [cal/(mol K)]        0.000 [J/(mol K)]       0.00000000 [mEh/K]
    Translational Cp        4.968 [cal/(mol K)]       20.786 [J/(mol K)]       0.00791703 [mEh/K]
    Rotational Cp           2.981 [cal/(mol K)]       12.472 [J/(mol K)]       0.00475022 [mEh/K]
    Vibrational Cp          5.744 [cal/(mol K)]       24.031 [J/(mol K)]       0.00915305 [mEh/K]
  Total Cp                 13.692 [cal/(mol K)]       57.289 [J/(mol K)]       0.02182029 [mEh/K]
  Correction Cp             0.000 [cal/(mol K)]        0.000 [J/(mol K)]       0.00000000 [mEh/K]

  ==> Thermochemistry Energy Analysis <==

  Raw electronic energy, E0
  Total E0, Electronic energy at well bottom at 0 [K]                 -439.92013557 [Eh]

  Zero-point energy, ZPE_vib = Sum_i nu_i / 2
    Electronic ZPE          0.000 [kcal/mol]        0.000 [kJ/mol]       0.00000000 [Eh]
    Translational ZPE       0.000 [kcal/mol]        0.000 [kJ/mol]       0.00000000 [Eh]
    Rotational ZPE          0.000 [kcal/mol]        0.000 [kJ/mol]       0.00000000 [Eh]
    Vibrational ZPE         0.577 [kcal/mol]        2.413 [kJ/mol]       0.00091917 [Eh]         201.734 [cm^-1]
  Correction ZPE            0.577 [kcal/mol]        2.413 [kJ/mol]       0.00091917 [Eh]         201.734 [cm^-1]
  Total ZPE, Electronic energy at 0 [K]                               -439.91921640 [Eh]

  Thermal Energy, E (includes ZPE)
    Electronic E            0.000 [kcal/mol]        0.000 [kJ/mol]       0.00000000 [Eh]
    Translational E         0.889 [kcal/mol]        3.718 [kJ/mol]       0.00141628 [Eh]
    Rotational E            0.889 [kcal/mol]        3.718 [kJ/mol]       0.00141628 [Eh]
    Vibrational E           1.844 [kcal/mol]        7.714 [kJ/mol]       0.00293811 [Eh]
  Correction E              3.621 [kcal/mol]       15.151 [kJ/mol]       0.00577066 [Eh]
  Total E, Electronic energy at  298.15 [K]                           -439.91436491 [Eh]

  Enthalpy, H_trans = E_trans + k_B * T
    Electronic H            0.000 [kcal/mol]        0.000 [kJ/mol]       0.00000000 [Eh]
    Translational H         1.481 [kcal/mol]        6.197 [kJ/mol]       0.00236046 [Eh]
    Rotational H            0.889 [kcal/mol]        3.718 [kJ/mol]       0.00141628 [Eh]
    Vibrational H           1.844 [kcal/mol]        7.714 [kJ/mol]       0.00293811 [Eh]
  Correction H              4.214 [kcal/mol]       17.630 [kJ/mol]       0.00671485 [Eh]
  Total H, Enthalpy at  298.15 [K]                                    -439.91342072 [Eh]

  Gibbs free energy, G = H - T * S
    Electronic G            0.000 [kcal/mol]        0.000 [kJ/mol]       0.00000000 [Eh]
    Translational G       -11.396 [kcal/mol]      -47.683 [kJ/mol]      -0.01816134 [Eh]
    Rotational G           -7.648 [kcal/mol]      -32.001 [kJ/mol]      -0.01218837 [Eh]
    Vibrational G          -0.798 [kcal/mol]       -3.340 [kJ/mol]      -0.00127198 [Eh]
  Correction G            -19.843 [kcal/mol]      -83.023 [kJ/mol]      -0.03162170 [Eh]
  Total G, Free enthalpy at  298.15 [K]                               -439.95175727 [Eh]

    Psi4 stopped on: Friday, 29 October 2021 09:02AM
    Psi4 wall time for execution: 0:25:08.19

*** Psi4 exiting successfully. Buy a developer a beer!
