Optimizer: Optimization complete!
 6 displacements needed.
 1 2 3 4 5 6
Warning: used thermodynamics relations inappropriate for low-frequency modes: ['125.9320' '182.7275' '204.3480']
At level 1: Red. Int., RFO, no backsteps, dynamic trust
At level 1: Red. Int., RFO, no backsteps, dynamic trust
At level 1: Red. Int., RFO, no backsteps, dynamic trust
aus, H. Kruse, R. Di Remigio,
    A. Alenaizan, A. M. James, S. Lehtola, J. P. Misiewicz, M. Scheurer,
    R. A. Shaw, J. B. Schriber, Y. Xie, Z. L. Glick, D. A. Sirianni,
    J. S. O'Brien, J. M. Waldrop, A. Kumar, E. G. Hohenstein,
    B. P. Pritchard, B. R. Brooks, H. F. Schaefer III, A. Yu. Sokolov,
    K. Patkowski, A. E. DePrince III, U. Bozkaya, R. A. King,
    F. A. Evangelista, J. M. Turney, T. D. Crawford, C. D. Sherrill,
    J. Chem. Phys. 152(18) 184108 (2020). https://doi.org/10.1063/5.0006002

                            Additional Code Authors
    E. T. Seidl, C. L. Janssen, E. F. Valeev, M. L. Leininger,
    J. F. Gonthier, R. M. Richard, H. R. McAlexander, M. Saitow, X. Wang,
    P. Verma, and M. H. Lechner

             Previous Authors, Complete List of Code Contributors,
                       and Citations for Specific Modules
    https://github.com/psi4/psi4/blob/master/codemeta.json
    https://github.com/psi4/psi4/graphs/contributors
    http://psicode.org/psi4manual/master/introduction.html#citing-psifour

    -----------------------------------------------------------------------


    Psi4 started on: Tuesday, 02 November 2021 03:43PM

    Process ID: 10699
    Host:       compute232.bc4.acrc.priv
    PSIDATADIR: /mnt/storage/home/zw18965/.conda/envs/p4env/share/psi4
    Memory:     500.0 MiB
    Threads:    28
    
  ==> Input File <==

--------------------------------------------------------------------------
memory 120 GB

molecule {
1 1
Ag       0.000000    1.529877    0.000000 
Ag       1.324912   -0.764938    0.000000 
Ag      -1.324912   -0.764938    0.000000 
 }

set dynamic_level 1
set basis Def2-TZVPPD

optimize("MN15-D3BJ")
frequencies("MN15-D3BJ")
--------------------------------------------------------------------------

  Memory set to 111.759 GiB by Python driver.

Scratch directory: /tmp/
gradient() will perform analytic gradient computation.

*** tstart() called on compute232.bc4.acrc.priv
*** at Tue Nov  2 15:43:06 2021

   => Loading Basis Set <=

    Name: DEF2-TZVPPD
    Role: ORBITAL
    Keyword: BASIS
    atoms 1-3 entry AG         line  2174 (ECP: line  3646) file /mnt/storage/home/zw18965/.conda/envs/p4env/share/psi4/basis/def2-tzvppd.gbs 

    !!!  WARNING: ECP capability is in beta. Please check occupations closely.  !!!

   => MN15-D3(BJ): Empirical Dispersion <=

    Grimme's -D3 (BJ-damping) Dispersion Correction
    Grimme S.; Ehrlich S.; Goerigk L. (2011), J. Comput. Chem., 32: 1456
    Parametrisation from:    L. Goerigk, A. Hansen, C. Bauer, S. Ehrlich, A. Najibi, S. Grimme, Phys. Chem. Chem. Phys. 19, 32184-32215, 2017

        s6 =       1.000000
        s8 =       2.097100
        a1 =       0.786200
        a2 =       7.592300


         ---------------------------------------------------------
                                   SCF
               by Justin Turney, Rob Parrish, Andy Simmonett
                          and Daniel G. A. Smith
                              RKS Reference
                       28 Threads, 114440 MiB Core
         ---------------------------------------------------------

  ==> Geometry <==

    Molecular point group: c2v
    Full point group: C2v

    Geometry (in Angstrom), charge = 1, multiplicity = 1:

       Center              X                  Y                   Z               Mass       
    ------------   -----------------  -----------------  -----------------  -----------------
         AG           0.000000000000    -0.000000000000     1.529876666667   106.905091600000
         AG           1.324912000000     0.000000000000    -0.764938333333   106.905091600000
         AG          -1.324912000000    -0.000000000000    -0.764938333333   106.905091600000

  Running in c2v symmetry.

  Rotational constants: A =      0.04492  B =      0.04492  C =      0.02246 [cm^-1]
  Rotational constants: A =   1346.52601  B =   1346.52589  C =    673.26298 [MHz]
  Nuclear repulsion =  216.278102475318605

  Charge       = 1
  Multiplicity = 1
  Electrons    = 56
  Nalpha       = 28
  Nbeta        = 28

  ==> Algorithm <==

  SCF Algorithm Type is DF.
  DIIS enabled.
  MOM disabled.
  Fractional occupation disabled.
  Guess Type is SAD.
  Energy threshold   = 1.00e-08
  Density threshold  = 1.00e-08
  Integral threshold = 1.00e-12

  ==> Primary Basis <==

  Basis Set: DEF2-TZVPPD
    Blend: DEF2-TZVPPD
    Number of shells: 48
    Number of basis functions: 168
    Number of Cartesian functions: 213
    Spherical Harmonics?: true
    Max angular momentum: 4

  Core potential: DEF2-TZVPPD
    Number of shells: 12
    Number of ECP primitives: 42
    Number of ECP core electrons: 84
    Max angular momentum: 3

  ==> DFT Potential <==

   => Composite Functional: MN15-D3BJ <= 

   MN15 Hybrid Meta-GGA Exchange-Correlation Functional

    H. S. Yu, X. He, S. L. Li, and D. G. Truhlar, Chem. Sci. 7, 5032-5051, 2016


    Deriv               =              1
    GGA                 =           TRUE
    Meta                =           TRUE

    Exchange Hybrid     =           TRUE
    MP2 Hybrid          =          FALSE

   => Exchange Functionals <=

    1.0000   XC_HYB_MGGA_X_MN15

   => Exact (HF) Exchange <=

    0.4400               HF 

   => Correlation Functionals <=

    1.0000   XC_MGGA_C_MN15

   => LibXC Density Thresholds  <==

    XC_MGGA_C_MN15:  1.00E-15 
    XC_HYB_MGGA_X_MN15:  1.00E-15 

   => Molecular Quadrature <=

    Radial Scheme          =       TREUTLER
    Pruning Scheme         =           NONE
    Nuclear Scheme         =       TREUTLER

    BS radius alpha        =              1
    Pruning alpha          =              1
    Radial Points          =             75
    Spherical Points       =            302
    Total Points           =          62882
    Total Blocks           =            586
    Max Points             =            256
    Max Functions          =            165
    Weights Tolerance      =       1.00E-15

   => Loading Basis Set <=

    Name: (DEF2-TZVPPD AUX)
    Role: JKFIT
    Keyword: DF_BASIS_SCF
    atoms 1-3 entry AG         line  4364 file /mnt/storage/home/zw18965/.conda/envs/p4env/share/psi4/basis/def2-universal-jkfit.gbs 

  ==> Integral Setup <==

  DFHelper Memory: AOs need 0.177 GiB; user supplied 83.304 GiB. Using in-core AOs.

  ==> MemDFJK: Density-Fitted J/K Matrices <==

    J tasked:                   Yes
    K tasked:                   Yes
    wK tasked:                   No
    OpenMP threads:              28
    Memory [MiB]:             85303
    Algorithm:                 Core
    Schwarz Cutoff:           1E-12
    Mask sparsity (%):       1.2188
    Fitting Condition:        1E-10

   => Auxiliary Basis Set <=

  Basis Set: (DEF2-TZVPPD AUX)
    Blend: DEF2-UNIVERSAL-JKFIT
    Number of shells: 147
    Number of basis functions: 765
    Number of Cartesian functions: 1152
    Spherical Harmonics?: true
    Max angular momentum: 6

  Cached 100.0% of DFT collocation blocks in 0.515 [GiB].

  Minimum eigenvalue in the overlap matrix is 2.4034578066E-03.
  Reciprocal condition number of the overlap matrix is 5.0383313224E-04.
    Using symmetric orthogonalization.

  ==> Pre-Iterations <==

  SCF Guess: Superposition of Atomic Densities via on-the-fly atomic UHF (no occupation information).

   -------------------------
    Irrep   Nso     Nmo    
   -------------------------
     A1        59      59 
     A2        27      27 
     B1        49      49 
     B2        33      33 
   -------------------------
    Total     168     168
   -------------------------

  ==> Iterations <==

                           Total Energy        Delta E     RMS |[F,P]|

   @DF-RKS iter SAD:  -439.47520464453544   -4.39475e+02   0.00000e+00 
   @DF-RKS iter   1:  -439.86634268727630   -3.91138e-01   4.97690e-03 DIIS
   @DF-RKS iter   2:  -439.85184215577112    1.45005e-02   5.89531e-03 DIIS
   @DF-RKS iter   3:  -439.91982438587604   -6.79822e-02   2.43174e-04 DIIS
   @DF-RKS iter   4:  -439.91998781188227   -1.63426e-04   1.47973e-04 DIIS
   @DF-RKS iter   5:  -439.92004140763629   -5.35958e-05   3.07106e-05 DIIS
   @DF-RKS iter   6:  -439.92004692404589   -5.51641e-06   5.68882e-06 DIIS
   @DF-RKS iter   7:  -439.92004711369896   -1.89653e-07   3.90962e-06 DIIS
   @DF-RKS iter   8:  -439.92004715480408   -4.11051e-08   8.07844e-07 DIIS
   @DF-RKS iter   9:  -439.92004715977737   -4.97329e-09   1.96445e-07 DIIS
   @DF-RKS iter  10:  -439.92004715994773   -1.70360e-10   5.82090e-08 DIIS
   @DF-RKS iter  11:  -439.92004715996597   -1.82467e-11   1.26754e-08 DIIS
   @DF-RKS iter  12:  -439.92004715996654   -5.68434e-13   5.57945e-09 DIIS
  Energy and wave function converged.


  ==> Post-Iterations <==

   Electrons on quadrature grid:
      Ntotal   =   55.9999795057 ; deviation = -2.049e-05 

    Orbital Energies [Eh]
    ---------------------

    Doubly Occupied:                                                      

       1A1    -3.843467     2A1    -3.842854     1B1    -3.842853  
       3A1    -2.497969     2B1    -2.495543     4A1    -2.495539  
       3B1    -2.492100     1B2    -2.491813     1A2    -2.491135  
       2B2    -2.491135     4B1    -2.490982     5A1    -2.490974  
       6A1    -0.617837     5B1    -0.601570     7A1    -0.601565  
       3B2    -0.597227     8A1    -0.582609     4B2    -0.579224  
       2A2    -0.579223     6B1    -0.558482     9A1    -0.558481  
       3A2    -0.554792     5B2    -0.551573     4A2    -0.551569  
       7B1    -0.550945    10A1    -0.550933     8B1    -0.531151  
      11A1    -0.459370  

    Virtual:                                                              

       9B1    -0.248155    12A1    -0.248153     6B2    -0.179278  
      13A1    -0.130095    14A1    -0.123711    10B1    -0.123710  
       5A2    -0.073781     7B2    -0.073779    11B1    -0.002878  
      15A1    -0.002876    12B1    -0.001851    16A1     0.008309  
      17A1     0.060297     8B2     0.066465    13B1     0.077635  
      18A1     0.077635    14B1     0.085144    19A1     0.085145  
       6A2     0.120657     9B2     0.120659    15B1     0.182274  
      20A1     0.217171    16B1     0.231846    21A1     0.231859  
      10B2     0.255583     7A2     0.255590    11B2     0.272580  
      17B1     0.365098    22A1     0.365101     8A2     0.409144  
      23A1     0.431992     9A2     0.462364    12B2     0.462376  
      18B1     0.471030    24A1     0.471040    19B1     0.543600  
      25A1     0.543628    20B1     0.601509    26A1     1.280373  
      21B1     1.280379    27A1     1.315578    28A1     1.325507  
      13B2     1.355476    10A2     1.357410    14B2     1.357432  
      29A1     1.385535    22B1     1.385563    15B2     1.386739  
      11A2     1.400910    16B2     1.400921    23B1     1.403033  
      12A2     1.419163    17B2     1.419188    24B1     1.434284  
      30A1     1.434285    13A2     1.450497    25B1     1.459347  
      31A1     1.459350    18B2     1.459464    32A1     1.500717  
      26B1     1.500731    27B1     1.510205    33A1     1.539328  
      14A2     1.551729    19B2     1.551772    34A1     1.583534  
      28B1     1.583546    29B1     1.727181    35A1     1.767140  
      36A1     1.856526    20B2     1.866649    15A2     1.866745  
      21B2     1.897332    30B1     1.899167    37A1     1.899174  
      16A2     1.917508    31B1     1.925342    38A1     1.925352  
      17A2     1.941456    22B2     1.941461    32B1     2.030520  
      39A1     2.030582    33B1     2.056895    40A1     2.160745  
      34B1     2.316374    41A1     2.316414    42A1     4.364902  
      35B1     4.382157    43A1     4.382176    23B2     4.391359  
      18A2     4.393745    24B2     4.393813    44A1     4.402138  
      25B2     4.416931    45A1     4.420682    36B1     4.420691  
      26B2     4.428990    19A2     4.429018    37B1     4.433941  
      20A2     4.474716    46A1     4.495804    38B1     4.495837  
      21A2     4.498093    27B2     4.498241    47A1     4.650237  
      39B1     4.650264    40B1     4.665649    48A1     5.226015  
      49A1     5.227185    41B1     5.227213    42B1     5.227718  
      22A2     5.227866    28B2     5.227915    29B2     5.228039  
      50A1     5.228442    43B1     5.228533    30B2     5.228675  
      23A2     5.228676    24A2     5.228720    51A1     5.229583  
      31B2     5.229747    52A1     5.230311    44B1     5.230414  
      32B2     5.231453    25A2     5.231578    53A1     5.231695  
      45B1     5.231737    54A1     5.231739    26A2     5.231941  
      33B2     5.232075    27A2     5.232090    46B1     5.233337  
      55A1     5.240128    47B1     5.240163    56A1    32.632289  
      57A1    32.965420    48B1    32.965424    58A1   110.370549  
      49B1   110.476491    59A1   110.476493  

    Final Occupation by Irrep:
             A1    A2    B1    B2 
    DOCC [    11,    4,    8,    5 ]

  @DF-RKS Final Energy:  -439.92004715996654

   => Energetics <=

    Nuclear Repulsion Energy =            216.2781024753186045
    One-Electron Energy =               -1203.0800551974459722
    Two-Electron Energy =                 570.7432821359550417
    DFT Exchange-Correlation Energy =     -23.8612475537942252
    Empirical Dispersion Energy =          -0.0001290200000000
    VV10 Nonlocal Energy =                  0.0000000000000000
    Total Energy =                       -439.9200471599664866

Computation Completed


Properties will be evaluated at   0.000000,   0.000000,   0.000000 [a0]

Properties computed using the SCF density matrix

  Nuclear Dipole Moment: [e a0]
     X:     0.0000      Y:     0.0000      Z:    -0.0000

  Electronic Dipole Moment: [e a0]
     X:     0.0000      Y:     0.0000      Z:     0.0000

  Dipole Moment: [e a0]
     X:     0.0000      Y:     0.0000      Z:     0.0000     Total:     0.0000

  Dipole Moment: [D]
     X:     0.0000      Y:     0.0000      Z:     0.0000     Total:     0.0000


*** tstop() called on compute232.bc4.acrc.priv at Tue Nov  2 15:43:19 2021
Module time:
	user time   =      97.71 seconds =       1.63 minutes
	system time =       3.28 seconds =       0.05 minutes
	total time  =         13 seconds =       0.22 minutes
Total time:
	user time   =      97.71 seconds =       1.63 minutes
	system time =       3.28 seconds =       0.05 minutes
	total time  =         13 seconds =       0.22 minutes

*** tstart() called on compute232.bc4.acrc.priv
*** at Tue Nov  2 15:43:20 2021


         ------------------------------------------------------------
                                   SCF GRAD                          
                          Rob Parrish, Justin Turney,                
                       Andy Simmonett, and Alex Sokolov              
         ------------------------------------------------------------

  ==> Geometry <==

    Molecular point group: c2v
    Full point group: C2v

    Geometry (in Angstrom), charge = 1, multiplicity = 1:

       Center              X                  Y                   Z               Mass       
    ------------   -----------------  -----------------  -----------------  -----------------
         AG           0.000000000000    -0.000000000000     1.529876666667   106.905091600000
         AG           1.324912000000     0.000000000000    -0.764938333333   106.905091600000
         AG          -1.324912000000    -0.000000000000    -0.764938333333   106.905091600000

  Nuclear repulsion =  216.278102475318605

  ==> Basis Set <==

  Basis Set: DEF2-TZVPPD
    Blend: DEF2-TZVPPD
    Number of shells: 48
    Number of basis functions: 168
    Number of Cartesian functions: 213
    Spherical Harmonics?: true
    Max angular momentum: 4

  Core potential: DEF2-TZVPPD
    Number of shells: 12
    Number of ECP primitives: 42
    Number of ECP core electrons: 84
    Max angular momentum: 3

  ==> DFJKGrad: Density-Fitted SCF Gradients <==

    Gradient:                    1
    J tasked:                  Yes
    K tasked:                  Yes
    wK tasked:                  No
    OpenMP threads:             28
    Integrals threads:          28
    Memory [MiB]:            85830
    Schwarz Cutoff:          1E-12
    Fitting Condition:       1E-10

   => Auxiliary Basis Set <=

  Basis Set: (DEF2-TZVPPD AUX)
    Blend: DEF2-UNIVERSAL-JKFIT
    Number of shells: 147
    Number of basis functions: 765
    Number of Cartesian functions: 1152
    Spherical Harmonics?: true
    Max angular momentum: 6

  ==> DFT Potential <==

   => Composite Functional: MN15-D3BJ <= 

   MN15 Hybrid Meta-GGA Exchange-Correlation Functional

    H. S. Yu, X. He, S. L. Li, and D. G. Truhlar, Chem. Sci. 7, 5032-5051, 2016


    Deriv               =              1
    GGA                 =           TRUE
    Meta                =           TRUE

    Exchange Hybrid     =           TRUE
    MP2 Hybrid          =          FALSE

   => Exchange Functionals <=

    1.0000   XC_HYB_MGGA_X_MN15

   => Exact (HF) Exchange <=

    0.4400               HF 

   => Correlation Functionals <=

    1.0000   XC_MGGA_C_MN15

   => LibXC Density Thresholds  <==

    XC_MGGA_C_MN15:  1.00E-15 
    XC_HYB_MGGA_X_MN15:  1.00E-15 

   => Molecular Quadrature <=

    Radial Scheme          =       TREUTLER
    Pruning Scheme         =           NONE
    Nuclear Scheme         =       TREUTLER

    BS radius alpha        =              1
    Pruning alpha          =              1
    Radial Points          =             75
    Spherical Points       =            302
    Total Points           =          62882
    Total Blocks           =            586
    Max Points             =            256
    Max Functions          =            165
    Weights Tolerance      =       1.00E-15


  -Total Gradient:
     Atom            X                  Y                   Z
    ------   -----------------  -----------------  -----------------
       1        0.000000000000     0.000000000000    -0.175086250104
       2       -0.151609920987    -0.000000000000     0.087600328754
       3        0.151609920987     0.000000000000     0.087600328754


*** tstop() called on compute232.bc4.acrc.priv at Tue Nov  2 15:43:32 2021
Module time:
	user time   =      56.53 seconds =       0.94 minutes
	system time =       5.36 seconds =       0.09 minutes
	total time  =         12 seconds =       0.20 minutes
Total time:
	user time   =     155.79 seconds =       2.60 minutes
	system time =       8.72 seconds =       0.15 minutes
	total time  =         26 seconds =       0.43 minutes


  ==> Adding ECP gradient terms (computed numerically) <==

  -ECP Gradient:
     Atom            X                  Y                   Z
    ------   -----------------  -----------------  -----------------
       1        0.000000000000    -0.000000000000     0.171224294441
       2        0.148283447926     0.000000000000    -0.085612146693
       3       -0.148283447926    -0.000000000000    -0.085612146693


  -Total Gradient:
     Atom            X                  Y                   Z
    ------   -----------------  -----------------  -----------------
       1        0.000000000000     0.000000000000    -0.003861955663
       2       -0.003326473060    -0.000000000000     0.001988182061
       3        0.003326473060     0.000000000000     0.001988182061


			-----------------------------------------
			 OPTKING 2.0: for geometry optimizations 
			  - R.A. King,  Bethel University        
			-----------------------------------------
	At level 1: Red. Int., RFO, no backsteps, dynamic trust

	Internal coordinates to be generated automatically.
	Detected frag 1 with atoms:  1 2 3
	---Fragment 1 Bond Connectivity---
	 1 : 2 3
	 2 : 1 3
	 3 : 1 2

	---Fragment 1 Geometry and Gradient---
	 AG          0.0000000000       -0.0000000000        2.8910479057
	 AG          2.5037208203        0.0000000000       -1.4455239529
	 AG         -2.5037208203       -0.0000000000       -1.4455239529
	             0.0000000000        0.0000000000       -0.0038619557
	            -0.0033264731       -0.0000000000        0.0019881821
	             0.0033264731        0.0000000000        0.0019881821

	Previous optimization step data not found.  Starting new optimization.

	---Fragment 1 Intrafragment Coordinates---
	 - Coordinate -           - BOHR/RAD -       - ANG/DEG -
	 R(1,2)           =         5.007442	       2.649824
	 R(1,3)           =         5.007442	       2.649824
	 R(2,3)           =         5.007442	       2.649824
	 B(1,2,3)         =         1.047198	      60.000001
	 B(1,3,2)         =         1.047198	      60.000001
	 B(2,1,3)         =         1.047198	      59.999998

	Current energy   :      -439.9200471600

	Generating empirical Hessian (Schlegel '84) for each fragment.
	Taking RFO optimization step.
	Going to follow RFO solution 1.
	Using RFO vector 1.
	Norm of target step-size    0.05651
	Projected energy change by RFO approximation:        -0.0002197113

	Back-transformation to cartesian coordinates...
	Successfully converged to displaced geometry.

	--- Internal Coordinate Step in ANG or DEG, aJ/ANG or AJ/DEG ---
	 ---------------------------------------------------------------------------
	   Coordinate                Previous        Force       Change         New 
	   ----------                --------       ------       ------       ------
	    1 R(1,2)          =      2.649824     0.018536     0.017357     2.667181
	    2 R(1,3)          =      2.649824     0.018536     0.017357     2.667181
	    3 R(2,3)          =      2.649824     0.018160     0.017082     2.666906
	    4 B(1,2,3)        =     60.000001     0.000000     0.003410    60.003411
	    5 B(1,3,2)        =     60.000001     0.000000     0.003410    60.003411
	    6 B(2,1,3)        =     59.999998    -0.000001    -0.006820    59.993178
	 ---------------------------------------------------------------------------
	Successfully symmetrized geometry.

  ==> Convergence Check <==

  Measures of convergence in internal coordinates in au.
  Criteria marked as inactive (o), active & met (*), and active & unmet ( ).
  --------------------------------------------------------------------------------------------- ~
   Step     Total Energy     Delta E     MAX Force     RMS Force      MAX Disp      RMS Disp    ~
  --------------------------------------------------------------------------------------------- ~
    Convergence Criteria    1.00e-06 *    3.00e-04 *             o    1.20e-03 *             o  ~
  --------------------------------------------------------------------------------------------- ~
      1    -439.92004716   -4.40e+02      2.25e-03      1.58e-03 o    3.28e-02      2.31e-02 o  ~
  ---------------------------------------------------------------------------------------------

	Writing optimization data to binary file.
	Structure for next step:
	Cartesian Geometry (in Angstrom)
	   AG     0.0000000000   0.0000000000   1.5399505939
	   AG     1.3334529830   0.0000000000  -0.7699752970
	   AG    -1.3334529830  -0.0000000000  -0.7699752970
			--------------------------
			 OPTKING Finished Execution 
			--------------------------

    Structure for next step:
    Molecular point group: c2v
    Full point group: C2v

    Geometry (in Angstrom), charge = 1, multiplicity = 1:

    AG           0.000000000000     0.000000000000     1.539950599990
    AG           1.333452988227     0.000000000000    -0.769975299995
    AG          -1.333452988227    -0.000000000000    -0.769975299995


Scratch directory: /tmp/
gradient() will perform analytic gradient computation.

*** tstart() called on compute232.bc4.acrc.priv
*** at Tue Nov  2 15:47:32 2021

   => Loading Basis Set <=

    Name: DEF2-TZVPPD
    Role: ORBITAL
    Keyword: BASIS
    atoms 1-3 entry AG         line  2174 (ECP: line  3646) file /mnt/storage/home/zw18965/.conda/envs/p4env/share/psi4/basis/def2-tzvppd.gbs 

    !!!  WARNING: ECP capability is in beta. Please check occupations closely.  !!!

   => MN15-D3(BJ): Empirical Dispersion <=

    Grimme's -D3 (BJ-damping) Dispersion Correction
    Grimme S.; Ehrlich S.; Goerigk L. (2011), J. Comput. Chem., 32: 1456
    Parametrisation from:    L. Goerigk, A. Hansen, C. Bauer, S. Ehrlich, A. Najibi, S. Grimme, Phys. Chem. Chem. Phys. 19, 32184-32215, 2017

        s6 =       1.000000
        s8 =       2.097100
        a1 =       0.786200
        a2 =       7.592300


         ---------------------------------------------------------
                                   SCF
               by Justin Turney, Rob Parrish, Andy Simmonett
                          and Daniel G. A. Smith
                              RKS Reference
                       28 Threads, 114440 MiB Core
         ---------------------------------------------------------

  ==> Geometry <==

    Molecular point group: c2v
    Full point group: C2v

    Geometry (in Angstrom), charge = 1, multiplicity = 1:

       Center              X                  Y                   Z               Mass       
    ------------   -----------------  -----------------  -----------------  -----------------
         AG           0.000000000000     0.000000000000     1.539950599990   106.905091600000
         AG           1.333452988227     0.000000000000    -0.769975299995   106.905091600000
         AG          -1.333452988227    -0.000000000000    -0.769975299995   106.905091600000

  Running in c2v symmetry.

  Rotational constants: A =      0.04434  B =      0.04433  C =      0.02217 [cm^-1]
  Rotational constants: A =   1329.33181  B =   1328.96631  C =    664.57452 [MHz]
  Nuclear repulsion =  214.878037166600649

  Charge       = 1
  Multiplicity = 1
  Electrons    = 56
  Nalpha       = 28
  Nbeta        = 28

  ==> Algorithm <==

  SCF Algorithm Type is DF.
  DIIS enabled.
  MOM disabled.
  Fractional occupation disabled.
  Guess Type is READ.
  Energy threshold   = 1.00e-08
  Density threshold  = 1.00e-08
  Integral threshold = 1.00e-12

  ==> Primary Basis <==

  Basis Set: DEF2-TZVPPD
    Blend: DEF2-TZVPPD
    Number of shells: 48
    Number of basis functions: 168
    Number of Cartesian functions: 213
    Spherical Harmonics?: true
    Max angular momentum: 4

  Core potential: DEF2-TZVPPD
    Number of shells: 12
    Number of ECP primitives: 42
    Number of ECP core electrons: 84
    Max angular momentum: 3

  ==> DFT Potential <==

   => Composite Functional: MN15-D3BJ <= 

   MN15 Hybrid Meta-GGA Exchange-Correlation Functional

    H. S. Yu, X. He, S. L. Li, and D. G. Truhlar, Chem. Sci. 7, 5032-5051, 2016


    Deriv               =              1
    GGA                 =           TRUE
    Meta                =           TRUE

    Exchange Hybrid     =           TRUE
    MP2 Hybrid          =          FALSE

   => Exchange Functionals <=

    1.0000   XC_HYB_MGGA_X_MN15

   => Exact (HF) Exchange <=

    0.4400               HF 

   => Correlation Functionals <=

    1.0000   XC_MGGA_C_MN15

   => LibXC Density Thresholds  <==

    XC_MGGA_C_MN15:  1.00E-15 
    XC_HYB_MGGA_X_MN15:  1.00E-15 

   => Molecular Quadrature <=

    Radial Scheme          =       TREUTLER
    Pruning Scheme         =           NONE
    Nuclear Scheme         =       TREUTLER

    BS radius alpha        =              1
    Pruning alpha          =              1
    Radial Points          =             75
    Spherical Points       =            302
    Total Points           =          62882
    Total Blocks           =            585
    Max Points             =            256
    Max Functions          =            165
    Weights Tolerance      =       1.00E-15

   => Loading Basis Set <=

    Name: (DEF2-TZVPPD AUX)
    Role: JKFIT
    Keyword: DF_BASIS_SCF
    atoms 1-3 entry AG         line  4364 file /mnt/storage/home/zw18965/.conda/envs/p4env/share/psi4/basis/def2-universal-jkfit.gbs 

   => Loading Basis Set <=

    Name: DEF2-TZVPPD
    Role: ORBITAL
    Keyword: BASIS
    atoms 1-3 entry AG         line  2174 (ECP: line  3646) file /mnt/storage/home/zw18965/.conda/envs/p4env/share/psi4/basis/def2-tzvppd.gbs 

    !!!  WARNING: ECP capability is in beta. Please check occupations closely.  !!!

  Reading orbitals from file /tmp/Ag03C1_D3H.default.10699.180.npy, no projection.

  ==> Integral Setup <==

  DFHelper Memory: AOs need 0.177 GiB; user supplied 83.306 GiB. Using in-core AOs.

  ==> MemDFJK: Density-Fitted J/K Matrices <==

    J tasked:                   Yes
    K tasked:                   Yes
    wK tasked:                   No
    OpenMP threads:              28
    Memory [MiB]:             85305
    Algorithm:                 Core
    Schwarz Cutoff:           1E-12
    Mask sparsity (%):       1.2613
    Fitting Condition:        1E-10

   => Auxiliary Basis Set <=

  Basis Set: (DEF2-TZVPPD AUX)
    Blend: DEF2-UNIVERSAL-JKFIT
    Number of shells: 147
    Number of basis functions: 765
    Number of Cartesian functions: 1152
    Spherical Harmonics?: true
    Max angular momentum: 6

  Cached 100.0% of DFT collocation blocks in 0.513 [GiB].

  Minimum eigenvalue in the overlap matrix is 2.4898388241E-03.
  Reciprocal condition number of the overlap matrix is 5.2361344908E-04.
    Using symmetric orthogonalization.

  ==> Pre-Iterations <==

  SCF Guess: Orbitals guess was supplied from a previous computation.

   -------------------------------------------------------
    Irrep   Nso     Nmo     Nalpha   Nbeta   Ndocc  Nsocc
   -------------------------------------------------------
     A1        59      59      11      11      11       0
     A2        27      27       4       4       4       0
     B1        49      49       8       8       8       0
     B2        33      33       5       5       5       0
   -------------------------------------------------------
    Total     168     168      28      28      28       0
   -------------------------------------------------------

  ==> Iterations <==

                           Total Energy        Delta E     RMS |[F,P]|

   @DF-RKS iter   0:  -439.91920965129037   -4.39919e+02   4.49887e-04 
   @DF-RKS iter   1:  -439.92018953376311   -9.79882e-04   1.69220e-05 DIIS
   @DF-RKS iter   2:  -439.92019024176307   -7.08000e-07   1.20515e-05 DIIS
   @DF-RKS iter   3:  -439.92019047535820   -2.33595e-07   4.07588e-06 DIIS
   @DF-RKS iter   4:  -439.92019051221808   -3.68599e-08   5.64726e-07 DIIS
   @DF-RKS iter   5:  -439.92019051484567   -2.62759e-09   1.89363e-07 DIIS
   @DF-RKS iter   6:  -439.92019051505014   -2.04466e-10   1.21030e-07 DIIS
   @DF-RKS iter   7:  -439.92019051510096   -5.08180e-11   1.08255e-08 DIIS
   @DF-RKS iter   8:  -439.92019051510238   -1.42109e-12   2.44662e-09 DIIS
  Energy and wave function converged.


  ==> Post-Iterations <==

   Electrons on quadrature grid:
      Ntotal   =   55.9999807844 ; deviation = -1.922e-05 

    Orbital Energies [Eh]
    ---------------------

    Doubly Occupied:                                                      

       1A1    -3.842716     2A1    -3.842155     1B1    -3.842154  
       3A1    -2.496913     2B1    -2.494713     4A1    -2.494710  
       3B1    -2.491504     1B2    -2.491149     2B2    -2.490518  
       1A2    -2.490517     4B1    -2.490386     5A1    -2.490380  
       6A1    -0.615459     7A1    -0.599847     5B1    -0.599836  
       3B2    -0.595512     8A1    -0.581454     4B2    -0.578187  
       2A2    -0.578179     9A1    -0.558164     6B1    -0.558154  
       3A2    -0.554626     5B2    -0.551449     4A2    -0.551439  
       7B1    -0.550776    10A1    -0.550773     8B1    -0.531582  
      11A1    -0.458089  

    Virtual:                                                              

      12A1    -0.248232     9B1    -0.248221     6B2    -0.178675  
      13A1    -0.130241    14A1    -0.123967    10B1    -0.123963  
       7B2    -0.074076     5A2    -0.074065    15A1    -0.003283  
      11B1    -0.003277    12B1    -0.002518    16A1     0.008369  
      17A1     0.060326     8B2     0.066996    18A1     0.077808  
      13B1     0.077808    19A1     0.085241    14B1     0.085244  
       9B2     0.120632     6A2     0.120640    15B1     0.181072  
      20A1     0.216492    21A1     0.229021    16B1     0.229046  
      10B2     0.255038     7A2     0.255043    11B2     0.270872  
      22A1     0.364367    17B1     0.364369     8A2     0.408476  
      23A1     0.431274    12B2     0.461967     9A2     0.461968  
      18B1     0.469823    24A1     0.469843    19B1     0.543285  
      25A1     0.543301    20B1     0.600311    26A1     1.288083  
      21B1     1.288193    27A1     1.323002    28A1     1.330954  
      13B2     1.358963    14B2     1.360382    10A2     1.360388  
      29A1     1.386343    22B1     1.386385    15B2     1.388065  
      16B2     1.401108    11A2     1.401111    23B1     1.402939  
      17B2     1.417351    12A2     1.417358    30A1     1.431518  
      24B1     1.431553    13A2     1.447498    31A1     1.457511  
      25B1     1.457543    18B2     1.459743    32A1     1.497830  
      26B1     1.497869    27B1     1.505762    33A1     1.541260  
      14A2     1.549973    19B2     1.549990    34A1     1.580526  
      28B1     1.580532    29B1     1.725859    35A1     1.763315  
      36A1     1.858181    20B2     1.868045    15A2     1.868149  
      21B2     1.900185    37A1     1.900468    30B1     1.900473  
      16A2     1.917242    38A1     1.929143    31B1     1.929185  
      22B2     1.940946    17A2     1.940956    39A1     2.023865  
      32B1     2.023884    33B1     2.047921    40A1     2.161213  
      34B1     2.312081    41A1     2.312127    42A1     4.369895  
      35B1     4.383830    43A1     4.383835    23B2     4.394858  
      18A2     4.396636    24B2     4.396676    44A1     4.403270  
      25B2     4.418206    45A1     4.421654    36B1     4.421675  
      26B2     4.429244    19A2     4.429284    37B1     4.433825  
      20A2     4.472153    46A1     4.492440    38B1     4.492538  
      21A2     4.494916    27B2     4.495021    47A1     4.643690  
      39B1     4.643789    40B1     4.657196    48A1     5.226891  
      49A1     5.227933    41B1     5.227957    42B1     5.228235  
      22A2     5.228648    28B2     5.228700    29B2     5.228831  
      50A1     5.229192    43B1     5.229292    23A2     5.229353  
      30B2     5.229412    24A2     5.229470    51A1     5.230216  
      31B2     5.230478    52A1     5.230902    44B1     5.231014  
      32B2     5.232045    25A2     5.232174    53A1     5.232291  
      45B1     5.232323    54A1     5.232326    26A2     5.232518  
      33B2     5.232649    27A2     5.232660    46B1     5.233579  
      55A1     5.240226    47B1     5.240265    56A1    32.625910  
      57A1    32.957710    48B1    32.957727    58A1   110.369056  
      59A1   110.474527    49B1   110.474530  

    Final Occupation by Irrep:
             A1    A2    B1    B2 
    DOCC [    11,    4,    8,    5 ]

  @DF-RKS Final Energy:  -439.92019051510238

   => Energetics <=

    Nuclear Repulsion Energy =            214.8780371666006488
    One-Electron Energy =               -1200.3258948584159498
    Two-Electron Energy =                 569.3863648927751910
    DFT Exchange-Correlation Energy =     -23.8585687060621687
    Empirical Dispersion Energy =          -0.0001290100000000
    VV10 Nonlocal Energy =                  0.0000000000000000
    Total Energy =                       -439.9201905151023198

Computation Completed


Properties will be evaluated at   0.000000,   0.000000,   0.000000 [a0]

Properties computed using the SCF density matrix

  Nuclear Dipole Moment: [e a0]
     X:     0.0000      Y:     0.0000      Z:    -0.0000

  Electronic Dipole Moment: [e a0]
     X:     0.0000      Y:     0.0000      Z:     0.0001

  Dipole Moment: [e a0]
     X:     0.0000      Y:     0.0000      Z:     0.0001     Total:     0.0001

  Dipole Moment: [D]
     X:     0.0000      Y:     0.0000      Z:     0.0004     Total:     0.0004


*** tstop() called on compute232.bc4.acrc.priv at Tue Nov  2 15:47:41 2021
Module time:
	user time   =      81.07 seconds =       1.35 minutes
	system time =       2.05 seconds =       0.03 minutes
	total time  =          9 seconds =       0.15 minutes
Total time:
	user time   =    1522.46 seconds =      25.37 minutes
	system time =      20.16 seconds =       0.34 minutes
	total time  =        275 seconds =       4.58 minutes

*** tstart() called on compute232.bc4.acrc.priv
*** at Tue Nov  2 15:47:41 2021


         ------------------------------------------------------------
                                   SCF GRAD                          
                          Rob Parrish, Justin Turney,                
                       Andy Simmonett, and Alex Sokolov              
         ------------------------------------------------------------

  ==> Geometry <==

    Molecular point group: c2v
    Full point group: C2v

    Geometry (in Angstrom), charge = 1, multiplicity = 1:

       Center              X                  Y                   Z               Mass       
    ------------   -----------------  -----------------  -----------------  -----------------
         AG           0.000000000000     0.000000000000     1.539950599990   106.905091600000
         AG           1.333452988227     0.000000000000    -0.769975299995   106.905091600000
         AG          -1.333452988227    -0.000000000000    -0.769975299995   106.905091600000

  Nuclear repulsion =  214.878037166600649

  ==> Basis Set <==

  Basis Set: DEF2-TZVPPD
    Blend: DEF2-TZVPPD
    Number of shells: 48
    Number of basis functions: 168
    Number of Cartesian functions: 213
    Spherical Harmonics?: true
    Max angular momentum: 4

  Core potential: DEF2-TZVPPD
    Number of shells: 12
    Number of ECP primitives: 42
    Number of ECP core electrons: 84
    Max angular momentum: 3

  ==> DFJKGrad: Density-Fitted SCF Gradients <==

    Gradient:                    1
    J tasked:                  Yes
    K tasked:                  Yes
    wK tasked:                  No
    OpenMP threads:             28
    Integrals threads:          28
    Memory [MiB]:            85830
    Schwarz Cutoff:          1E-12
    Fitting Condition:       1E-10

   => Auxiliary Basis Set <=

  Basis Set: (DEF2-TZVPPD AUX)
    Blend: DEF2-UNIVERSAL-JKFIT
    Number of shells: 147
    Number of basis functions: 765
    Number of Cartesian functions: 1152
    Spherical Harmonics?: true
    Max angular momentum: 6

  ==> DFT Potential <==

   => Composite Functional: MN15-D3BJ <= 

   MN15 Hybrid Meta-GGA Exchange-Correlation Functional

    H. S. Yu, X. He, S. L. Li, and D. G. Truhlar, Chem. Sci. 7, 5032-5051, 2016


    Deriv               =              1
    GGA                 =           TRUE
    Meta                =           TRUE

    Exchange Hybrid     =           TRUE
    MP2 Hybrid          =          FALSE

   => Exchange Functionals <=

    1.0000   XC_HYB_MGGA_X_MN15

   => Exact (HF) Exchange <=

    0.4400               HF 

   => Correlation Functionals <=

    1.0000   XC_MGGA_C_MN15

   => LibXC Density Thresholds  <==

    XC_MGGA_C_MN15:  1.00E-15 
    XC_HYB_MGGA_X_MN15:  1.00E-15 

   => Molecular Quadrature <=

    Radial Scheme          =       TREUTLER
    Pruning Scheme         =           NONE
    Nuclear Scheme         =       TREUTLER

    BS radius alpha        =              1
    Pruning alpha          =              1
    Radial Points          =             75
    Spherical Points       =            302
    Total Points           =          62882
    Total Blocks           =            585
    Max Points             =            256
    Max Functions          =            165
    Weights Tolerance      =       1.00E-15


  -Total Gradient:
     Atom            X                  Y                   Z
    ------   -----------------  -----------------  -----------------
       1        0.000000000000    -0.000000000000    -0.166052790570
       2       -0.143878609039    -0.000000000000     0.083080482534
       3        0.143878609039     0.000000000000     0.083080482534


*** tstop() called on compute232.bc4.acrc.priv at Tue Nov  2 15:47:53 2021
Module time:
	user time   =      53.73 seconds =       0.90 minutes
	system time =       1.67 seconds =       0.03 minutes
	total time  =         12 seconds =       0.20 minutes
Total time:
	user time   =    1579.33 seconds =      26.32 minutes
	system time =      21.98 seconds =       0.37 minutes
	total time  =        287 seconds =       4.78 minutes


  ==> Adding ECP gradient terms (computed numerically) <==

  -ECP Gradient:
     Atom            X                  Y                   Z
    ------   -----------------  -----------------  -----------------
       1        0.000000000000     0.000000000000     0.164933100706
       2        0.142883449416     0.000000000000    -0.082466550519
       3       -0.142883449416    -0.000000000000    -0.082466550519


  -Total Gradient:
     Atom            X                  Y                   Z
    ------   -----------------  -----------------  -----------------
       1        0.000000000000    -0.000000000000    -0.001119689864
       2       -0.000995159623    -0.000000000000     0.000613932015
       3        0.000995159623     0.000000000000     0.000613932015


			-----------------------------------------
			 OPTKING 2.0: for geometry optimizations 
			  - R.A. King,  Bethel University        
			-----------------------------------------
	At level 1: Red. Int., RFO, no backsteps, dynamic trust

	Previous internal coordinate definitions found.
	---Fragment 1 Geometry and Gradient---
	 AG          0.0000000000        0.0000000000        2.9100848807
	 AG          2.5198609489        0.0000000000       -1.4550424404
	 AG         -2.5198609489       -0.0000000000       -1.4550424404
	             0.0000000000       -0.0000000000       -0.0011196899
	            -0.0009951596       -0.0000000000        0.0006139320
	             0.0009951596        0.0000000000        0.0006139320

	---Fragment 1 Intrafragment Coordinates---
	 - Coordinate -           - BOHR/RAD -       - ANG/DEG -
	 R(1,2)           =         5.040242	       2.667181
	 R(1,3)           =         5.040242	       2.667181
	 R(2,3)           =         5.039722	       2.666906
	 B(1,2,3)         =         1.047257	      60.003411
	 B(1,3,2)         =         1.047257	      60.003411
	 B(2,1,3)         =         1.047078	      59.993178

	Current energy   :      -439.9201905151

	Energy change for the previous step:
		Projected    :        -0.0002197113
		Actual       :        -0.0001433551

	Performing BFGS update.
	Previous computed or guess Hessian on step 1.
	Steps to be used in Hessian update: 1
	Taking RFO optimization step.
	Going to follow RFO solution 1.
	Using RFO vector 1.
	Norm of target step-size    0.02395
	Projected energy change by RFO approximation:        -0.0000276900

	Back-transformation to cartesian coordinates...
	Successfully converged to displaced geometry.

	--- Internal Coordinate Step in ANG or DEG, aJ/ANG or AJ/DEG ---
	 ---------------------------------------------------------------------------
	   Coordinate                Previous        Force       Change         New 
	   ----------                --------       ------       ------       ------
	    1 R(1,2)          =      2.667181     0.005496     0.007330     2.674511
	    2 R(1,3)          =      2.667181     0.005496     0.007330     2.674511
	    3 R(2,3)          =      2.666906     0.005454     0.007287     2.674193
	    4 B(1,2,3)        =     60.003411     0.000000     0.000528    60.003939
	    5 B(1,3,2)        =     60.003411     0.000000     0.000528    60.003939
	    6 B(2,1,3)        =     59.993178    -0.000000    -0.001055    59.992122
	 ---------------------------------------------------------------------------
	Successfully symmetrized geometry.

  ==> Convergence Check <==

  Measures of convergence in internal coordinates in au.
  Criteria marked as inactive (o), active & met (*), and active & unmet ( ).
  ---------------------------------------------------------------------------------------------
   Step     Total Energy     Delta E     MAX Force     RMS Force      MAX Disp      RMS Disp   
  ---------------------------------------------------------------------------------------------
    Convergence Criteria    1.00e-06 *    3.00e-04 *             o    1.20e-03 *             o
  ---------------------------------------------------------------------------------------------
      2    -439.92019052   -1.43e-04      6.67e-04      4.70e-04 o    1.39e-02      9.78e-03 o  ~
  ---------------------------------------------------------------------------------------------

	Writing optimization data to binary file.
	Structure for next step:
	Cartesian Geometry (in Angstrom)
	   AG     0.0000000000   0.0000000000   1.5441910775
	   AG     1.3370964007   0.0000000000  -0.7720955387
	   AG    -1.3370964007  -0.0000000000  -0.7720955387
			--------------------------
			 OPTKING Finished Execution 
			--------------------------

    Structure for next step:
    Molecular point group: c2v
    Full point group: C2v

    Geometry (in Angstrom), charge = 1, multiplicity = 1:

    AG           0.000000000000    -0.000000000000     1.544191083567
    AG           1.337096405956     0.000000000000    -0.772095541783
    AG          -1.337096405956    -0.000000000000    -0.772095541783


Scratch directory: /tmp/
gradient() will perform analytic gradient computation.

*** tstart() called on compute232.bc4.acrc.priv
*** at Tue Nov  2 15:51:53 2021

   => Loading Basis Set <=

    Name: DEF2-TZVPPD
    Role: ORBITAL
    Keyword: BASIS
    atoms 1-3 entry AG         line  2174 (ECP: line  3646) file /mnt/storage/home/zw18965/.conda/envs/p4env/share/psi4/basis/def2-tzvppd.gbs 

    !!!  WARNING: ECP capability is in beta. Please check occupations closely.  !!!

   => MN15-D3(BJ): Empirical Dispersion <=

    Grimme's -D3 (BJ-damping) Dispersion Correction
    Grimme S.; Ehrlich S.; Goerigk L. (2011), J. Comput. Chem., 32: 1456
    Parametrisation from:    L. Goerigk, A. Hansen, C. Bauer, S. Ehrlich, A. Najibi, S. Grimme, Phys. Chem. Chem. Phys. 19, 32184-32215, 2017

        s6 =       1.000000
        s8 =       2.097100
        a1 =       0.786200
        a2 =       7.592300


         ---------------------------------------------------------
                                   SCF
               by Justin Turney, Rob Parrish, Andy Simmonett
                          and Daniel G. A. Smith
                              RKS Reference
                       28 Threads, 114440 MiB Core
         ---------------------------------------------------------

  ==> Geometry <==

    Molecular point group: c2v
    Full point group: C2v

    Geometry (in Angstrom), charge = 1, multiplicity = 1:

       Center              X                  Y                   Z               Mass       
    ------------   -----------------  -----------------  -----------------  -----------------
         AG           0.000000000000    -0.000000000000     1.544191083567   106.905091600000
         AG           1.337096405956     0.000000000000    -0.772095541783   106.905091600000
         AG          -1.337096405956    -0.000000000000    -0.772095541783   106.905091600000

  Running in c2v symmetry.

  Rotational constants: A =      0.04410  B =      0.04409  C =      0.02205 [cm^-1]
  Rotational constants: A =   1322.09716  B =   1321.67742  C =    660.94363 [MHz]
  Nuclear repulsion =  214.290242474383263

  Charge       = 1
  Multiplicity = 1
  Electrons    = 56
  Nalpha       = 28
  Nbeta        = 28

  ==> Algorithm <==

  SCF Algorithm Type is DF.
  DIIS enabled.
  MOM disabled.
  Fractional occupation disabled.
  Guess Type is READ.
  Energy threshold   = 1.00e-08
  Density threshold  = 1.00e-08
  Integral threshold = 1.00e-12

  ==> Primary Basis <==

  Basis Set: DEF2-TZVPPD
    Blend: DEF2-TZVPPD
    Number of shells: 48
    Number of basis functions: 168
    Number of Cartesian functions: 213
    Spherical Harmonics?: true
    Max angular momentum: 4

  Core potential: DEF2-TZVPPD
    Number of shells: 12
    Number of ECP primitives: 42
    Number of ECP core electrons: 84
    Max angular momentum: 3

  ==> DFT Potential <==

   => Composite Functional: MN15-D3BJ <= 

   MN15 Hybrid Meta-GGA Exchange-Correlation Functional

    H. S. Yu, X. He, S. L. Li, and D. G. Truhlar, Chem. Sci. 7, 5032-5051, 2016


    Deriv               =              1
    GGA                 =           TRUE
    Meta                =           TRUE

    Exchange Hybrid     =           TRUE
    MP2 Hybrid          =          FALSE

   => Exchange Functionals <=

    1.0000   XC_HYB_MGGA_X_MN15

   => Exact (HF) Exchange <=

    0.4400               HF 

   => Correlation Functionals <=

    1.0000   XC_MGGA_C_MN15

   => LibXC Density Thresholds  <==

    XC_MGGA_C_MN15:  1.00E-15 
    XC_HYB_MGGA_X_MN15:  1.00E-15 

   => Molecular Quadrature <=

    Radial Scheme          =       TREUTLER
    Pruning Scheme         =           NONE
    Nuclear Scheme         =       TREUTLER

    BS radius alpha        =              1
    Pruning alpha          =              1
    Radial Points          =             75
    Spherical Points       =            302
    Total Points           =          62896
    Total Blocks           =            588
    Max Points             =            252
    Max Functions          =            165
    Weights Tolerance      =       1.00E-15

   => Loading Basis Set <=

    Name: (DEF2-TZVPPD AUX)
    Role: JKFIT
    Keyword: DF_BASIS_SCF
    atoms 1-3 entry AG         line  4364 file /mnt/storage/home/zw18965/.conda/envs/p4env/share/psi4/basis/def2-universal-jkfit.gbs 

   => Loading Basis Set <=

    Name: DEF2-TZVPPD
    Role: ORBITAL
    Keyword: BASIS
    atoms 1-3 entry AG         line  2174 (ECP: line  3646) file /mnt/storage/home/zw18965/.conda/envs/p4env/share/psi4/basis/def2-tzvppd.gbs 

    !!!  WARNING: ECP capability is in beta. Please check occupations closely.  !!!

  Reading orbitals from file /tmp/Ag03C1_D3H.default.10699.180.npy, no projection.

  ==> Integral Setup <==

  DFHelper Memory: AOs need 0.177 GiB; user supplied 83.306 GiB. Using in-core AOs.

  ==> MemDFJK: Density-Fitted J/K Matrices <==

    J tasked:                   Yes
    K tasked:                   Yes
    wK tasked:                   No
    OpenMP threads:              28
    Memory [MiB]:             85305
    Algorithm:                 Core
    Schwarz Cutoff:           1E-12
    Mask sparsity (%):       1.3039
    Fitting Condition:        1E-10

   => Auxiliary Basis Set <=

  Basis Set: (DEF2-TZVPPD AUX)
    Blend: DEF2-UNIVERSAL-JKFIT
    Number of shells: 147
    Number of basis functions: 765
    Number of Cartesian functions: 1152
    Spherical Harmonics?: true
    Max angular momentum: 6

  Cached 100.0% of DFT collocation blocks in 0.513 [GiB].

  Minimum eigenvalue in the overlap matrix is 2.5269620503E-03.
  Reciprocal condition number of the overlap matrix is 5.3214069888E-04.
    Using symmetric orthogonalization.

  ==> Pre-Iterations <==

  SCF Guess: Orbitals guess was supplied from a previous computation.

   -------------------------------------------------------
    Irrep   Nso     Nmo     Nalpha   Nbeta   Ndocc  Nsocc
   -------------------------------------------------------
     A1        59      59      11      11      11       0
     A2        27      27       4       4       4       0
     B1        49      49       8       8       8       0
     B2        33      33       5       5       5       0
   -------------------------------------------------------
    Total     168     168      28      28      28       0
   -------------------------------------------------------

  ==> Iterations <==

                           Total Energy        Delta E     RMS |[F,P]|

   @DF-RKS iter   0:  -439.91965822572473   -4.39920e+02   1.87599e-04 
   @DF-RKS iter   1:  -439.92020560903069   -5.47383e-04   6.49436e-06 DIIS
   @DF-RKS iter   2:  -439.92020574961373   -1.40583e-07   4.04088e-06 DIIS
   @DF-RKS iter   3:  -439.92020577898478   -2.93711e-08   1.55428e-06 DIIS
   @DF-RKS iter   4:  -439.92020578420539   -5.22061e-09   3.20729e-07 DIIS
   @DF-RKS iter   5:  -439.92020578469453   -4.89138e-10   1.29190e-07 DIIS
   @DF-RKS iter   6:  -439.92020578475859   -6.40625e-11   5.15760e-08 DIIS
   @DF-RKS iter   7:  -439.92020578477110   -1.25056e-11   4.90299e-09 DIIS
  Energy and wave function converged.


  ==> Post-Iterations <==

   Electrons on quadrature grid:
      Ntotal   =   55.9999813307 ; deviation = -1.867e-05 

    Orbital Energies [Eh]
    ---------------------

    Doubly Occupied:                                                      

       1A1    -3.842403     2A1    -3.841863     1B1    -3.841861  
       3A1    -2.496477     2B1    -2.494368     4A1    -2.494366  
       3B1    -2.491254     1B2    -2.490872     2B2    -2.490260  
       1A2    -2.490258     4B1    -2.490136     5A1    -2.490130  
       6A1    -0.614472     7A1    -0.599131     5B1    -0.599118  
       3B2    -0.594802     8A1    -0.580974     4B2    -0.577756  
       2A2    -0.577747     9A1    -0.558029     6B1    -0.558018  
       3A2    -0.554555     5B2    -0.551394     4A2    -0.551384  
       7B1    -0.550705    10A1    -0.550704     8B1    -0.531759  
      11A1    -0.457546  

    Virtual:                                                              

      12A1    -0.248264     9B1    -0.248251     6B2    -0.178421  
      13A1    -0.130300    14A1    -0.124073    10B1    -0.124068  
       7B2    -0.074199     5A2    -0.074186    15A1    -0.003455  
      11B1    -0.003447    12B1    -0.002802    16A1     0.008394  
      17A1     0.060340     8B2     0.067222    18A1     0.077878  
      13B1     0.077878    19A1     0.085284    14B1     0.085288  
       9B2     0.120624     6A2     0.120633    15B1     0.180569  
      20A1     0.216209    21A1     0.227835    16B1     0.227865  
      10B2     0.254811     7A2     0.254816    11B2     0.270152  
      22A1     0.364051    17B1     0.364053     8A2     0.408190  
      23A1     0.430966    12B2     0.461789     9A2     0.461792  
      18B1     0.469296    24A1     0.469317    19B1     0.543162  
      25A1     0.543177    20B1     0.599815    26A1     1.291279  
      21B1     1.291403    27A1     1.325988    28A1     1.333181  
      13B2     1.360342    14B2     1.361584    10A2     1.361593  
      29A1     1.386677    22B1     1.386719    15B2     1.388607  
      16B2     1.401194    11A2     1.401200    23B1     1.402911  
      17B2     1.416614    12A2     1.416625    30A1     1.430403  
      24B1     1.430442    13A2     1.446278    31A1     1.456500  
      25B1     1.456541    18B2     1.459860    32A1     1.496899  
      26B1     1.496937    27B1     1.503859    33A1     1.542060  
      14A2     1.549240    19B2     1.549253    34A1     1.579295  
      28B1     1.579299    29B1     1.725243    35A1     1.761653  
      36A1     1.858859    20B2     1.868602    15A2     1.868706  
      37A1     1.900916    30B1     1.900921    21B2     1.901307  
      16A2     1.917146    38A1     1.930888    31B1     1.930939  
      22B2     1.940765    17A2     1.940776    39A1     2.021137  
      32B1     2.021167    33B1     2.044343    40A1     2.161343  
      34B1     2.310200    41A1     2.310247    42A1     4.371954  
      35B1     4.384571    43A1     4.384574    23B2     4.396294  
      18A2     4.397820    24B2     4.397856    44A1     4.403786  
      25B2     4.418728    45A1     4.422058    36B1     4.422080  
      26B2     4.429358    19A2     4.429401    37B1     4.433789  
      20A2     4.471117    46A1     4.491076    38B1     4.491183  
      21A2     4.493613    27B2     4.493711    47A1     4.640961  
      39B1     4.641070    40B1     4.653708    48A1     5.227252  
      49A1     5.228248    41B1     5.228271    42B1     5.228458  
      22A2     5.228971    28B2     5.229025    29B2     5.229159  
      50A1     5.229502    43B1     5.229605    23A2     5.229637  
      30B2     5.229718    24A2     5.229783    51A1     5.230483  
      31B2     5.230782    52A1     5.231151    44B1     5.231265  
      32B2     5.232292    25A2     5.232423    53A1     5.232539  
      45B1     5.232568    54A1     5.232572    26A2     5.232759  
      33B2     5.232892    27A2     5.232900    46B1     5.233707  
      55A1     5.240286    47B1     5.240324    56A1    32.623283  
      57A1    32.954425    48B1    32.954445    58A1   110.368446  
      59A1   110.473687    49B1   110.473691  

    Final Occupation by Irrep:
             A1    A2    B1    B2 
    DOCC [    11,    4,    8,    5 ]

  @DF-RKS Final Energy:  -439.92020578477110

   => Energetics <=

    Nuclear Repulsion Energy =            214.2902424743832626
    One-Electron Energy =               -1199.1693708588275058
    Two-Electron Energy =                 568.8165161249921766
    DFT Exchange-Correlation Energy =     -23.8574645153190303
    Empirical Dispersion Energy =          -0.0001290100000000
    VV10 Nonlocal Energy =                  0.0000000000000000
    Total Energy =                       -439.9202057847710989

Computation Completed


Properties will be evaluated at   0.000000,   0.000000,   0.000000 [a0]

Properties computed using the SCF density matrix

  Nuclear Dipole Moment: [e a0]
     X:     0.0000      Y:    -0.0000      Z:     0.0000

  Electronic Dipole Moment: [e a0]
     X:     0.0000      Y:     0.0000      Z:     0.0002

  Dipole Moment: [e a0]
     X:     0.0000      Y:    -0.0000      Z:     0.0002     Total:     0.0002

  Dipole Moment: [D]
     X:     0.0000      Y:    -0.0000      Z:     0.0004     Total:     0.0004


*** tstop() called on compute232.bc4.acrc.priv at Tue Nov  2 15:52:01 2021
Module time:
	user time   =      77.88 seconds =       1.30 minutes
	system time =       2.15 seconds =       0.04 minutes
	total time  =          8 seconds =       0.13 minutes
Total time:
	user time   =    2937.18 seconds =      48.95 minutes
	system time =      33.13 seconds =       0.55 minutes
	total time  =        535 seconds =       8.92 minutes

*** tstart() called on compute232.bc4.acrc.priv
*** at Tue Nov  2 15:52:02 2021


         ------------------------------------------------------------
                                   SCF GRAD                          
                          Rob Parrish, Justin Turney,                
                       Andy Simmonett, and Alex Sokolov              
         ------------------------------------------------------------

  ==> Geometry <==

    Molecular point group: c2v
    Full point group: C2v

    Geometry (in Angstrom), charge = 1, multiplicity = 1:

       Center              X                  Y                   Z               Mass       
    ------------   -----------------  -----------------  -----------------  -----------------
         AG           0.000000000000    -0.000000000000     1.544191083567   106.905091600000
         AG           1.337096405956     0.000000000000    -0.772095541783   106.905091600000
         AG          -1.337096405956    -0.000000000000    -0.772095541783   106.905091600000

  Nuclear repulsion =  214.290242474383263

  ==> Basis Set <==

  Basis Set: DEF2-TZVPPD
    Blend: DEF2-TZVPPD
    Number of shells: 48
    Number of basis functions: 168
    Number of Cartesian functions: 213
    Spherical Harmonics?: true
    Max angular momentum: 4

  Core potential: DEF2-TZVPPD
    Number of shells: 12
    Number of ECP primitives: 42
    Number of ECP core electrons: 84
    Max angular momentum: 3

  ==> DFJKGrad: Density-Fitted SCF Gradients <==

    Gradient:                    1
    J tasked:                  Yes
    K tasked:                  Yes
    wK tasked:                  No
    OpenMP threads:             28
    Integrals threads:          28
    Memory [MiB]:            85830
    Schwarz Cutoff:          1E-12
    Fitting Condition:       1E-10

   => Auxiliary Basis Set <=

  Basis Set: (DEF2-TZVPPD AUX)
    Blend: DEF2-UNIVERSAL-JKFIT
    Number of shells: 147
    Number of basis functions: 765
    Number of Cartesian functions: 1152
    Spherical Harmonics?: true
    Max angular momentum: 6

  ==> DFT Potential <==

   => Composite Functional: MN15-D3BJ <= 

   MN15 Hybrid Meta-GGA Exchange-Correlation Functional

    H. S. Yu, X. He, S. L. Li, and D. G. Truhlar, Chem. Sci. 7, 5032-5051, 2016


    Deriv               =              1
    GGA                 =           TRUE
    Meta                =           TRUE

    Exchange Hybrid     =           TRUE
    MP2 Hybrid          =          FALSE

   => Exchange Functionals <=

    1.0000   XC_HYB_MGGA_X_MN15

   => Exact (HF) Exchange <=

    0.4400               HF 

   => Correlation Functionals <=

    1.0000   XC_MGGA_C_MN15

   => LibXC Density Thresholds  <==

    XC_MGGA_C_MN15:  1.00E-15 
    XC_HYB_MGGA_X_MN15:  1.00E-15 

   => Molecular Quadrature <=

    Radial Scheme          =       TREUTLER
    Pruning Scheme         =           NONE
    Nuclear Scheme         =       TREUTLER

    BS radius alpha        =              1
    Pruning alpha          =              1
    Radial Points          =             75
    Spherical Points       =            302
    Total Points           =          62896
    Total Blocks           =            588
    Max Points             =            252
    Max Functions          =            165
    Weights Tolerance      =       1.00E-15


  -Total Gradient:
     Atom            X                  Y                   Z
    ------   -----------------  -----------------  -----------------
       1        0.000000000000     0.000000000000    -0.162366473287
       2       -0.140702471923    -0.000000000000     0.081236026668
       3        0.140702471923     0.000000000000     0.081236026668


*** tstop() called on compute232.bc4.acrc.priv at Tue Nov  2 15:52:15 2021
Module time:
	user time   =      56.63 seconds =       0.94 minutes
	system time =       3.80 seconds =       0.06 minutes
	total time  =         13 seconds =       0.22 minutes
Total time:
	user time   =    2997.04 seconds =      49.95 minutes
	system time =      37.08 seconds =       0.62 minutes
	total time  =        549 seconds =       9.15 minutes


  ==> Adding ECP gradient terms (computed numerically) <==

  -ECP Gradient:
     Atom            X                  Y                   Z
    ------   -----------------  -----------------  -----------------
       1        0.000000000000     0.000000000000     0.162347754771
       2        0.140651460547     0.000000000000    -0.081173877261
       3       -0.140651460547    -0.000000000000    -0.081173877261


  -Total Gradient:
     Atom            X                  Y                   Z
    ------   -----------------  -----------------  -----------------
       1        0.000000000000     0.000000000000    -0.000018718516
       2       -0.000051011377    -0.000000000000     0.000062149406
       3        0.000051011377     0.000000000000     0.000062149406


			-----------------------------------------
			 OPTKING 2.0: for geometry optimizations 
			  - R.A. King,  Bethel University        
			-----------------------------------------
	At level 1: Red. Int., RFO, no backsteps, dynamic trust

	Previous internal coordinate definitions found.
	---Fragment 1 Geometry and Gradient---
	 AG          0.0000000000       -0.0000000000        2.9180982333
	 AG          2.5267460106        0.0000000000       -1.4590491167
	 AG         -2.5267460106       -0.0000000000       -1.4590491167
	             0.0000000000        0.0000000000       -0.0000187185
	            -0.0000510114       -0.0000000000        0.0000621494
	             0.0000510114        0.0000000000        0.0000621494

	---Fragment 1 Intrafragment Coordinates---
	 - Coordinate -           - BOHR/RAD -       - ANG/DEG -
	 R(1,2)           =         5.054094	       2.674511
	 R(1,3)           =         5.054094	       2.674511
	 R(2,3)           =         5.053492	       2.674193
	 B(1,2,3)         =         1.047266	      60.003939
	 B(1,3,2)         =         1.047266	      60.003939
	 B(2,1,3)         =         1.047060	      59.992122

	Current energy   :      -439.9202057848

	Energy change for the previous step:
		Projected    :        -0.0000276900
		Actual       :        -0.0000152697

	Performing BFGS update.
	Previous computed or guess Hessian on step 1.
	Steps to be used in Hessian update: 2 1
	Taking RFO optimization step.
	Going to follow RFO solution 1.
	Using RFO vector 1.
	Norm of target step-size    0.00119
	Projected energy change by RFO approximation:        -0.0000000644

	Back-transformation to cartesian coordinates...
	Successfully converged to displaced geometry.

	--- Internal Coordinate Step in ANG or DEG, aJ/ANG or AJ/DEG ---
	 ---------------------------------------------------------------------------
	   Coordinate                Previous        Force       Change         New 
	   ----------                --------       ------       ------       ------
	    1 R(1,2)          =      2.674511     0.000258     0.000356     2.674867
	    2 R(1,3)          =      2.674511     0.000258     0.000356     2.674867
	    3 R(2,3)          =      2.674193     0.000290     0.000379     2.674572
	    4 B(1,2,3)        =     60.003939    -0.000000    -0.000286    60.003653
	    5 B(1,3,2)        =     60.003939    -0.000000    -0.000286    60.003653
	    6 B(2,1,3)        =     59.992122     0.000000     0.000572    59.992694
	 ---------------------------------------------------------------------------
	Successfully symmetrized geometry.

  ==> Convergence Check <==

  Measures of convergence in internal coordinates in au.
  Criteria marked as inactive (o), active & met (*), and active & unmet ( ).
  ---------------------------------------------------------------------------------------------
   Step     Total Energy     Delta E     MAX Force     RMS Force      MAX Disp      RMS Disp   
  ---------------------------------------------------------------------------------------------
    Convergence Criteria    1.00e-06 *    3.00e-04 *             o    1.20e-03 *             o
  ---------------------------------------------------------------------------------------------
      3    -439.92020578   -1.53e-05      3.51e-05 *    2.31e-05 o    7.16e-04 *    4.86e-04 o  ~
  ---------------------------------------------------------------------------------------------


  **** Optimization is complete! (in 3 steps) ****

  ==> Optimization Summary <==

  Measures of convergence in internal coordinates in au.
  --------------------------------------------------------------------------------------------------------------- ~
   Step         Total Energy             Delta E       MAX Force       RMS Force        MAX Disp        RMS Disp  ~
  --------------------------------------------------------------------------------------------------------------- ~
      1    -439.920047159967   -439.920047159967      0.00224990      0.00158024      0.03279983      0.02307124  ~
      2    -439.920190515102     -0.000143355136      0.00066705      0.00047048      0.01385218      0.00977567  ~
      3    -439.920205784771     -0.000015269669      0.00003515      0.00002307      0.00071601      0.00048599  ~
  --------------------------------------------------------------------------------------------------------------- ~

	Writing optimization data to binary file.
	Final energy is   -439.9202057847711
	Final (previous) structure:
	Cartesian Geometry (in Angstrom)
	   AG     0.0000000000  -0.0000000000   1.5441910775
	   AG     1.3370964007   0.0000000000  -0.7720955387
	   AG    -1.3370964007  -0.0000000000  -0.7720955387
	Saving final (previous) structure.
	Cleaning optimization helper files.
			--------------------------
			 OPTKING Finished Execution 
			--------------------------

    Final optimized geometry and variables:
    Molecular point group: c2v
    Full point group: C2v

    Geometry (in Angstrom), charge = 1, multiplicity = 1:

    AG           0.000000000000     0.000000000000     1.544191083567
    AG           1.337096405956     0.000000000000    -0.772095541783
    AG          -1.337096405956    -0.000000000000    -0.772095541783

	Removing binary optimization data file.
	Cleaning optimization helper files.

Scratch directory: /tmp/
gradient() will perform analytic gradient computation.

*** tstart() called on compute232.bc4.acrc.priv
*** at Tue Nov  2 15:56:15 2021

   => Loading Basis Set <=

    Name: DEF2-TZVPPD
    Role: ORBITAL
    Keyword: BASIS
    atoms 1-3 entry AG         line  2174 (ECP: line  3646) file /mnt/storage/home/zw18965/.conda/envs/p4env/share/psi4/basis/def2-tzvppd.gbs 

    !!!  WARNING: ECP capability is in beta. Please check occupations closely.  !!!

   => MN15-D3(BJ): Empirical Dispersion <=

    Grimme's -D3 (BJ-damping) Dispersion Correction
    Grimme S.; Ehrlich S.; Goerigk L. (2011), J. Comput. Chem., 32: 1456
    Parametrisation from:    L. Goerigk, A. Hansen, C. Bauer, S. Ehrlich, A. Najibi, S. Grimme, Phys. Chem. Chem. Phys. 19, 32184-32215, 2017

        s6 =       1.000000
        s8 =       2.097100
        a1 =       0.786200
        a2 =       7.592300


         ---------------------------------------------------------
                                   SCF
               by Justin Turney, Rob Parrish, Andy Simmonett
                          and Daniel G. A. Smith
                              RKS Reference
                       28 Threads, 114440 MiB Core
         ---------------------------------------------------------

  ==> Geometry <==

    Molecular point group: c2v
    Full point group: C2v

    Geometry (in Angstrom), charge = 1, multiplicity = 1:

       Center              X                  Y                   Z               Mass       
    ------------   -----------------  -----------------  -----------------  -----------------
         AG           0.000000000000     0.000000000000     1.544191083567   106.905091600000
         AG           1.337096405956     0.000000000000    -0.772095541783   106.905091600000
         AG          -1.337096405956    -0.000000000000    -0.772095541783   106.905091600000

  Running in c2v symmetry.

  Rotational constants: A =      0.04410  B =      0.04409  C =      0.02205 [cm^-1]
  Rotational constants: A =   1322.09716  B =   1321.67742  C =    660.94363 [MHz]
  Nuclear repulsion =  214.290242474383291

  Charge       = 1
  Multiplicity = 1
  Electrons    = 56
  Nalpha       = 28
  Nbeta        = 28

  ==> Algorithm <==

  SCF Algorithm Type is DF.
  DIIS enabled.
  MOM disabled.
  Fractional occupation disabled.
  Guess Type is SAD.
  Energy threshold   = 1.00e-08
  Density threshold  = 1.00e-08
  Integral threshold = 1.00e-12

  ==> Primary Basis <==

  Basis Set: DEF2-TZVPPD
    Blend: DEF2-TZVPPD
    Number of shells: 48
    Number of basis functions: 168
    Number of Cartesian functions: 213
    Spherical Harmonics?: true
    Max angular momentum: 4

  Core potential: DEF2-TZVPPD
    Number of shells: 12
    Number of ECP primitives: 42
    Number of ECP core electrons: 84
    Max angular momentum: 3

  ==> DFT Potential <==

   => Composite Functional: MN15-D3BJ <= 

   MN15 Hybrid Meta-GGA Exchange-Correlation Functional

    H. S. Yu, X. He, S. L. Li, and D. G. Truhlar, Chem. Sci. 7, 5032-5051, 2016


    Deriv               =              1
    GGA                 =           TRUE
    Meta                =           TRUE

    Exchange Hybrid     =           TRUE
    MP2 Hybrid          =          FALSE

   => Exchange Functionals <=

    1.0000   XC_HYB_MGGA_X_MN15

   => Exact (HF) Exchange <=

    0.4400               HF 

   => Correlation Functionals <=

    1.0000   XC_MGGA_C_MN15

   => LibXC Density Thresholds  <==

    XC_MGGA_C_MN15:  1.00E-15 
    XC_HYB_MGGA_X_MN15:  1.00E-15 

   => Molecular Quadrature <=

    Radial Scheme          =       TREUTLER
    Pruning Scheme         =           NONE
    Nuclear Scheme         =       TREUTLER

    BS radius alpha        =              1
    Pruning alpha          =              1
    Radial Points          =             75
    Spherical Points       =            302
    Total Points           =          62896
    Total Blocks           =            588
    Max Points             =            252
    Max Functions          =            165
    Weights Tolerance      =       1.00E-15

   => Loading Basis Set <=

    Name: (DEF2-TZVPPD AUX)
    Role: JKFIT
    Keyword: DF_BASIS_SCF
    atoms 1-3 entry AG         line  4364 file /mnt/storage/home/zw18965/.conda/envs/p4env/share/psi4/basis/def2-universal-jkfit.gbs 

  ==> Integral Setup <==

  DFHelper Memory: AOs need 0.177 GiB; user supplied 83.306 GiB. Using in-core AOs.

  ==> MemDFJK: Density-Fitted J/K Matrices <==

    J tasked:                   Yes
    K tasked:                   Yes
    wK tasked:                   No
    OpenMP threads:              28
    Memory [MiB]:             85305
    Algorithm:                 Core
    Schwarz Cutoff:           1E-12
    Mask sparsity (%):       1.3039
    Fitting Condition:        1E-10

   => Auxiliary Basis Set <=

  Basis Set: (DEF2-TZVPPD AUX)
    Blend: DEF2-UNIVERSAL-JKFIT
    Number of shells: 147
    Number of basis functions: 765
    Number of Cartesian functions: 1152
    Spherical Harmonics?: true
    Max angular momentum: 6

  Cached 100.0% of DFT collocation blocks in 0.513 [GiB].

  Minimum eigenvalue in the overlap matrix is 2.5269620503E-03.
  Reciprocal condition number of the overlap matrix is 5.3214069888E-04.
    Using symmetric orthogonalization.

  ==> Pre-Iterations <==

  SCF Guess: Superposition of Atomic Densities via on-the-fly atomic UHF (no occupation information).

   -------------------------
    Irrep   Nso     Nmo    
   -------------------------
     A1        59      59 
     A2        27      27 
     B1        49      49 
     B2        33      33 
   -------------------------
    Total     168     168
   -------------------------

  ==> Iterations <==

                           Total Energy        Delta E     RMS |[F,P]|

   @DF-RKS iter SAD:  -439.43991433877579   -4.39440e+02   0.00000e+00 
   @DF-RKS iter   1:  -439.86677697406958   -4.26863e-01   4.94692e-03 DIIS
   @DF-RKS iter   2:  -439.85270358041055    1.40734e-02   5.85072e-03 DIIS
   @DF-RKS iter   3:  -439.91997516583302   -6.72716e-02   2.47414e-04 DIIS
   @DF-RKS iter   4:  -439.92014590418773   -1.70738e-04   1.46452e-04 DIIS
   @DF-RKS iter   5:  -439.92019952906219   -5.36249e-05   3.11553e-05 DIIS
   @DF-RKS iter   6:  -439.92020552869616   -5.99963e-06   6.01839e-06 DIIS
   @DF-RKS iter   7:  -439.92020571345188   -1.84756e-07   4.95133e-06 DIIS
   @DF-RKS iter   8:  -439.92020577876121   -6.53093e-08   7.26168e-07 DIIS
   @DF-RKS iter   9:  -439.92020578390191   -5.14069e-09   9.30258e-08 DIIS
   @DF-RKS iter  10:  -439.92020578398876   -8.68567e-11   3.70573e-08 DIIS
   @DF-RKS iter  11:  -439.92020578399240   -3.63798e-12   6.29695e-09 DIIS
  Energy and wave function converged.


  ==> Post-Iterations <==

   Electrons on quadrature grid:
      Ntotal   =   55.9999813307 ; deviation = -1.867e-05 

    Orbital Energies [Eh]
    ---------------------

    Doubly Occupied:                                                      

       1A1    -3.842403     2A1    -3.841863     1B1    -3.841861  
       3A1    -2.496477     2B1    -2.494369     4A1    -2.494366  
       3B1    -2.491254     1B2    -2.490872     2B2    -2.490260  
       1A2    -2.490258     4B1    -2.490136     5A1    -2.490130  
       6A1    -0.614472     7A1    -0.599131     5B1    -0.599118  
       3B2    -0.594802     8A1    -0.580974     4B2    -0.577756  
       2A2    -0.577747     9A1    -0.558029     6B1    -0.558018  
       3A2    -0.554555     5B2    -0.551394     4A2    -0.551384  
       7B1    -0.550705    10A1    -0.550704     8B1    -0.531759  
      11A1    -0.457547  

    Virtual:                                                              

      12A1    -0.248264     9B1    -0.248251     6B2    -0.178421  
      13A1    -0.130300    14A1    -0.124073    10B1    -0.124068  
       7B2    -0.074199     5A2    -0.074186    15A1    -0.003455  
      11B1    -0.003447    12B1    -0.002802    16A1     0.008394  
      17A1     0.060340     8B2     0.067222    18A1     0.077878  
      13B1     0.077878    19A1     0.085284    14B1     0.085288  
       9B2     0.120624     6A2     0.120633    15B1     0.180569  
      20A1     0.216209    21A1     0.227835    16B1     0.227865  
      10B2     0.254811     7A2     0.254816    11B2     0.270152  
      22A1     0.364051    17B1     0.364053     8A2     0.408190  
      23A1     0.430966    12B2     0.461789     9A2     0.461792  
      18B1     0.469296    24A1     0.469317    19B1     0.543162  
      25A1     0.543177    20B1     0.599815    26A1     1.291279  
      21B1     1.291402    27A1     1.325988    28A1     1.333181  
      13B2     1.360342    14B2     1.361584    10A2     1.361593  
      29A1     1.386677    22B1     1.386719    15B2     1.388607  
      16B2     1.401194    11A2     1.401200    23B1     1.402911  
      17B2     1.416614    12A2     1.416625    30A1     1.430403  
      24B1     1.430442    13A2     1.446277    31A1     1.456500  
      25B1     1.456541    18B2     1.459860    32A1     1.496899  
      26B1     1.496937    27B1     1.503859    33A1     1.542060  
      14A2     1.549240    19B2     1.549253    34A1     1.579295  
      28B1     1.579299    29B1     1.725243    35A1     1.761653  
      36A1     1.858859    20B2     1.868602    15A2     1.868706  
      37A1     1.900916    30B1     1.900921    21B2     1.901307  
      16A2     1.917146    38A1     1.930888    31B1     1.930939  
      22B2     1.940765    17A2     1.940776    39A1     2.021137  
      32B1     2.021167    33B1     2.044343    40A1     2.161343  
      34B1     2.310200    41A1     2.310247    42A1     4.371954  
      35B1     4.384571    43A1     4.384574    23B2     4.396294  
      18A2     4.397820    24B2     4.397856    44A1     4.403786  
      25B2     4.418728    45A1     4.422058    36B1     4.422080  
      26B2     4.429358    19A2     4.429401    37B1     4.433789  
      20A2     4.471117    46A1     4.491076    38B1     4.491183  
      21A2     4.493613    27B2     4.493711    47A1     4.640961  
      39B1     4.641070    40B1     4.653708    48A1     5.227252  
      49A1     5.228248    41B1     5.228271    42B1     5.228458  
      22A2     5.228971    28B2     5.229025    29B2     5.229159  
      50A1     5.229502    43B1     5.229605    23A2     5.229637  
      30B2     5.229718    24A2     5.229783    51A1     5.230483  
      31B2     5.230782    52A1     5.231151    44B1     5.231265  
      32B2     5.232292    25A2     5.232423    53A1     5.232539  
      45B1     5.232568    54A1     5.232572    26A2     5.232759  
      33B2     5.232892    27A2     5.232900    46B1     5.233707  
      55A1     5.240286    47B1     5.240324    56A1    32.623283  
      57A1    32.954425    48B1    32.954445    58A1   110.368446  
      59A1   110.473687    49B1   110.473691  

    Final Occupation by Irrep:
             A1    A2    B1    B2 
    DOCC [    11,    4,    8,    5 ]

[...]
    Number of Cartesian functions: 1152
    Spherical Harmonics?: true
    Max angular momentum: 6

  Cached 100.0% of DFT collocation blocks in 0.512 [GiB].

  Minimum eigenvalue in the overlap matrix is 3.0369641563E-03.
  Reciprocal condition number of the overlap matrix is 5.5145301975E-04.
    Using symmetric orthogonalization.

  ==> Pre-Iterations <==

  SCF Guess: Superposition of Atomic Densities via on-the-fly atomic UHF (no occupation information).

   -------------------------
    Irrep   Nso     Nmo    
   -------------------------
     A'       108     108 
     A"        60      60 
   -------------------------
    Total     168     168
   -------------------------

  ==> Iterations <==

                           Total Energy        Delta E     RMS |[F,P]|

   @DF-RKS iter SAD:  -439.47010280854460   -4.39470e+02   0.00000e+00 
   @DF-RKS iter   1:  -439.86700350275885   -3.96901e-01   3.51433e-03 DIIS
   @DF-RKS iter   2:  -439.85232216749978    1.46813e-02   4.17743e-03 DIIS
   @DF-RKS iter   3:  -439.91999805976894   -6.76759e-02   1.76024e-04 DIIS
   @DF-RKS iter   4:  -439.92016795042849   -1.69891e-04   1.05728e-04 DIIS
   @DF-RKS iter   5:  -439.92022215616277   -5.42057e-05   2.14751e-05 DIIS
   @DF-RKS iter   6:  -439.92022762537687   -5.46921e-06   4.38421e-06 DIIS
   @DF-RKS iter   7:  -439.92022780719566   -1.81819e-07   3.41556e-06 DIIS
   @DF-RKS iter   8:  -439.92022786934382   -6.21482e-08   5.26354e-07 DIIS
   @DF-RKS iter   9:  -439.92022787431188   -4.96806e-09   1.47165e-07 DIIS
   @DF-RKS iter  10:  -439.92022787450202   -1.90141e-10   4.16417e-08 DIIS
   @DF-RKS iter  11:  -439.92022787452197   -1.99520e-11   9.72101e-09 DIIS
  Energy and wave function converged.


  ==> Post-Iterations <==

   Electrons on quadrature grid:
      Ntotal   =   55.9999963765 ; deviation = -3.624e-06 

    Orbital Energies [Eh]
    ---------------------

    Doubly Occupied:                                                      

       1Ap    -3.842406     2Ap    -3.841866     3Ap    -3.841864  
       4Ap    -2.496477     5Ap    -2.494377     6Ap    -2.494372  
       7Ap    -2.491262     1App   -2.490873     2App   -2.490263  
       3App   -2.490257     8Ap    -2.490139     9Ap    -2.490130  
      10Ap    -0.614479    11Ap    -0.599136    12Ap    -0.599108  
       4App   -0.594802    13Ap    -0.580976     5App   -0.577765  
       6App   -0.577749    14Ap    -0.558038    15Ap    -0.558018  
       7App   -0.554563     8App   -0.551394     9App   -0.551384  
      16Ap    -0.550722    17Ap    -0.550705    18Ap    -0.531761  
      19Ap    -0.457539  

    Virtual:                                                              

      20Ap    -0.248273    21Ap    -0.248250    10App   -0.178424  
      22Ap    -0.130295    23Ap    -0.124075    24Ap    -0.124068  
      11App   -0.074206    12App   -0.074185    25Ap    -0.003460  
      26Ap    -0.003446    27Ap    -0.002803    28Ap     0.008392  
      29Ap     0.060346    13App    0.067222    30Ap     0.077877  
      31Ap     0.077878    32Ap     0.085285    33Ap     0.085292  
      14App    0.120618    15App    0.120636    34Ap     0.180568  
      35Ap     0.216206    36Ap     0.227808    37Ap     0.227867  
      16App    0.254805    17App    0.254810    18App    0.270152  
      38Ap     0.364044    39Ap     0.364056    19App    0.408185  
      40Ap     0.430986    20App    0.461776    21App    0.461804  
      41Ap     0.469307    42Ap     0.469329    43Ap     0.543144  
      44Ap     0.543172    45Ap     0.599824    46Ap     1.291243  
      47Ap     1.291426    48Ap     1.326005    49Ap     1.333189  
      22App    1.360350    23App    1.361560    24App    1.361623  
      50Ap     1.386697    51Ap     1.386724    25App    1.388581  
      26App    1.401149    27App    1.401187    52Ap     1.402954  
      28App    1.416600    29App    1.416648    53Ap     1.430408  
      54Ap     1.430480    30App    1.446275    55Ap     1.456464  
      56Ap     1.456532    31App    1.459863    57Ap     1.496881  
      58Ap     1.496922    59Ap     1.503829    60Ap     1.542065  
      32App    1.549226    33App    1.549271    61Ap     1.579295  
      62Ap     1.579308    63Ap     1.725225    64Ap     1.761663  
      65Ap     1.858899    34App    1.868615    35App    1.868635  
      66Ap     1.900943    67Ap     1.900963    36App    1.901330  
      37App    1.917110    68Ap     1.930870    69Ap     1.930956  
      38App    1.940761    39App    1.940799    70Ap     2.021022  
      71Ap     2.021153    72Ap     2.044306    73Ap     2.161473  
      74Ap     2.310189    75Ap     2.310238    76Ap     4.372031  
      77Ap     4.384480    78Ap     4.384595    40App    4.396301  
      41App    4.397783    42App    4.397911    79Ap     4.403799  
      43App    4.418697    80Ap     4.422026    81Ap     4.422116  
      44App    4.429301    45App    4.429395    82Ap     4.433783  
      46App    4.471123    83Ap     4.491144    84Ap     4.491267  
      47App    4.493598    48App    4.493742    85Ap     4.640851  
      86Ap     4.641040    87Ap     4.653611    88Ap     5.227258  
      89Ap     5.228228    90Ap     5.228275    91Ap     5.228498  
      49App    5.228936    50App    5.228968    51App    5.229067  
      92Ap     5.229566    93Ap     5.229572    52App    5.229705  
      53App    5.229744    54App    5.229788    94Ap     5.230458  
      55App    5.230772    95Ap     5.231212    96Ap     5.231261  
      56App    5.232342    97Ap     5.232469    57App    5.232481  
      98Ap     5.232551    99Ap     5.232615    58App    5.232751  
      59App    5.232892    60App    5.232913   100Ap     5.233702  
     101Ap     5.240265   102Ap     5.240341   103Ap    32.623283  
     104Ap    32.954420   105Ap    32.954446   106Ap   110.368444  
     107Ap   110.473682   108Ap   110.473691  

    Final Occupation by Irrep:
             Ap   App 
    DOCC [    19,    9 ]

  @DF-RKS Final Energy:  -439.92022787452197

   => Energetics <=

    Nuclear Repulsion Energy =            214.2902429645832569
    One-Electron Energy =               -1199.1692725793973295
    Two-Electron Energy =                 568.8164195292304157
    DFT Exchange-Correlation Energy =     -23.8574887789383006
    Empirical Dispersion Energy =          -0.0001290100000000
    VV10 Nonlocal Energy =                  0.0000000000000000
    Total Energy =                       -439.9202278745219701

Computation Completed


Properties will be evaluated at   0.000000,   0.000000,   0.000000 [a0]

Properties computed using the SCF density matrix

  Nuclear Dipole Moment: [e a0]
     X:     0.0000      Y:     0.0000      Z:     0.0000

  Electronic Dipole Moment: [e a0]
     X:     0.0002      Y:     0.0000      Z:     0.0002

  Dipole Moment: [e a0]
     X:     0.0002      Y:     0.0000      Z:     0.0002     Total:     0.0003

  Dipole Moment: [D]
     X:     0.0006      Y:     0.0000      Z:     0.0004     Total:     0.0007


*** tstop() called on compute232.bc4.acrc.priv at Tue Nov  2 16:22:48 2021
Module time:
	user time   =      96.03 seconds =       1.60 minutes
	system time =       2.20 seconds =       0.04 minutes
	total time  =         11 seconds =       0.18 minutes
Total time:
	user time   =   12980.07 seconds =     216.33 minutes
	system time =     128.66 seconds =       2.14 minutes
	total time  =       2382 seconds =      39.70 minutes

*** tstart() called on compute232.bc4.acrc.priv
*** at Tue Nov  2 16:22:48 2021


         ------------------------------------------------------------
                                   SCF GRAD                          
                          Rob Parrish, Justin Turney,                
                       Andy Simmonett, and Alex Sokolov              
         ------------------------------------------------------------

  ==> Geometry <==

    Molecular point group: cs
    Full point group: Cs

    Geometry (in Angstrom), charge = 1, multiplicity = 1:

       Center              X                  Y                   Z               Mass       
    ------------   -----------------  -----------------  -----------------  -----------------
         AG          -0.000147732769     0.000000000000     1.544191083567   106.905091600000
         AG           1.337170272341     0.000000000000    -0.772223502428   106.905091600000
         AG          -1.337022539572     0.000000000000    -0.771967581139   106.905091600000

  Nuclear repulsion =  214.290242964583257

  ==> Basis Set <==

  Basis Set: DEF2-TZVPPD
    Blend: DEF2-TZVPPD
    Number of shells: 48
    Number of basis functions: 168
    Number of Cartesian functions: 213
    Spherical Harmonics?: true
    Max angular momentum: 4

  Core potential: DEF2-TZVPPD
    Number of shells: 12
    Number of ECP primitives: 42
    Number of ECP core electrons: 84
    Max angular momentum: 3

  ==> DFJKGrad: Density-Fitted SCF Gradients <==

    Gradient:                    1
    J tasked:                  Yes
    K tasked:                  Yes
    wK tasked:                  No
    OpenMP threads:             28
    Integrals threads:          28
    Memory [MiB]:            85830
    Schwarz Cutoff:          1E-12
    Fitting Condition:       1E-10

   => Auxiliary Basis Set <=

  Basis Set: (DEF2-TZVPPD AUX)
    Blend: DEF2-UNIVERSAL-JKFIT
    Number of shells: 147
    Number of basis functions: 765
    Number of Cartesian functions: 1152
    Spherical Harmonics?: true
    Max angular momentum: 6

  ==> DFT Potential <==

   => Composite Functional: MN15-D3BJ <= 

   MN15 Hybrid Meta-GGA Exchange-Correlation Functional

    H. S. Yu, X. He, S. L. Li, and D. G. Truhlar, Chem. Sci. 7, 5032-5051, 2016


    Deriv               =              1
    GGA                 =           TRUE
    Meta                =           TRUE

    Exchange Hybrid     =           TRUE
    MP2 Hybrid          =          FALSE

   => Exchange Functionals <=

    1.0000   XC_HYB_MGGA_X_MN15

   => Exact (HF) Exchange <=

    0.4400               HF 

   => Correlation Functionals <=

    1.0000   XC_MGGA_C_MN15

   => LibXC Density Thresholds  <==

    XC_MGGA_C_MN15:  1.00E-15 
    XC_HYB_MGGA_X_MN15:  1.00E-15 

   => Molecular Quadrature <=

    Radial Scheme          =       TREUTLER
    Pruning Scheme         =           NONE
    Nuclear Scheme         =       TREUTLER

    BS radius alpha        =              1
    Pruning alpha          =              1
    Radial Points          =             75
    Spherical Points       =            302
    Total Points           =          62855
    Total Blocks           =            586
    Max Points             =            256
    Max Functions          =            165
    Weights Tolerance      =       1.00E-15


  -Total Gradient:
     Atom            X                  Y                   Z
    ------   -----------------  -----------------  -----------------
       1       -0.000079632914     0.000000000000    -0.162431597840
       2       -0.140612180083     0.000000000000     0.081115637115
       3        0.140754700600     0.000000000000     0.081236099973


*** tstop() called on compute232.bc4.acrc.priv at Tue Nov  2 16:23:00 2021
Module time:
	user time   =      54.49 seconds =       0.91 minutes
	system time =       1.86 seconds =       0.03 minutes
	total time  =         12 seconds =       0.20 minutes
Total time:
	user time   =   13038.04 seconds =     217.30 minutes
	system time =     130.68 seconds =       2.18 minutes
	total time  =       2394 seconds =      39.90 minutes


  ==> Adding ECP gradient terms (computed numerically) <==

  -ECP Gradient:
     Atom            X                  Y                   Z
    ------   -----------------  -----------------  -----------------
       1        0.000037811236     0.000000000000     0.162339919558
       2        0.140628559346     0.000000000000    -0.081137053568
       3       -0.140666369006     0.000000000000    -0.081202866298


  -Total Gradient:
     Atom            X                  Y                   Z
    ------   -----------------  -----------------  -----------------
       1       -0.000041821678     0.000000000000    -0.000091678282
       2        0.000016379262     0.000000000000    -0.000021416453
       3        0.000088331593     0.000000000000     0.000033233675


         ----------------------------------------------------------
                                   FINDIF
                     R. A. King and Jonathon Misiewicz
         ---------------------------------------------------------

  Computing second-derivative from gradients using projected, 
  symmetry-adapted, cartesian coordinates.

  6 gradients passed in, including the reference geometry.
  Generating complete list of displacements from unique ones.

    Operation 2 takes plus displacements of irrep B1 to minus ones.

-------------------------------------------------------------


  ==> Harmonic Vibrational Analysis <==

  non-mass-weighted Hessian:       Symmetric? True   Hermitian? True   Lin Dep Dim?  6 (0)
  projection of translations (True) and rotations (True) removed 6 degrees of freedom (6)
  total projector:                 Symmetric? True   Hermitian? True   Lin Dep Dim?  6 (6)
  mass-weighted Hessian:           Symmetric? True   Hermitian? True   Lin Dep Dim?  6 (0)
  pre-proj  low-frequency mode:    0.0000i [cm^-1]
  pre-proj  low-frequency mode:    0.0000  [cm^-1]
  pre-proj  low-frequency mode:    0.0000  [cm^-1]
  pre-proj  low-frequency mode:    0.0000  [cm^-1]
  pre-proj  low-frequency mode:    0.0000  [cm^-1]
  pre-proj  low-frequency mode:    0.0000  [cm^-1]
  pre-proj  all modes:['0.0000i' '0.0000' '0.0000' '0.0000' '0.0000' '0.0000' '125.9320'
 '182.7275' '204.3480']
  projected mass-weighted Hessian: Symmetric? True   Hermitian? True   Lin Dep Dim?  6 (6)
  post-proj low-frequency mode:    0.0000i [cm^-1] (TR)
  post-proj low-frequency mode:    0.0000i [cm^-1] (TR)
  post-proj low-frequency mode:    0.0000i [cm^-1] (TR)
  post-proj low-frequency mode:    0.0000  [cm^-1] (TR)
  post-proj low-frequency mode:    0.0000  [cm^-1] (TR)
  post-proj low-frequency mode:    0.0000  [cm^-1] (TR)
  post-proj  all modes:['0.0000i' '0.0000i' '0.0000i' '0.0000' '0.0000' '0.0000' '125.9320'
 '182.7275' '204.3480']

  Vibration                       7                   8                   9           
  Freq [cm^-1]                 125.9320            182.7275            204.3480       
  Irrep                           A1                  A1                  B1          
  Reduced mass [u]             106.9051            106.9051            106.9051       
  Force const [mDyne/A]         0.9989              2.1031              2.6302        
  Turning point v=0 [a0]        0.0946              0.0785              0.0742        
  RMS dev v=0 [a0 u^1/2]        0.6914              0.5740              0.5428        
  Char temp [K]                181.1881            262.9042            294.0112       
  ----------------------------------------------------------------------------------
      1   AG               0.00 -0.00  0.57    0.00 -0.00  0.58    0.58  0.00  0.00   
      2   AG              -0.50 -0.00 -0.29    0.50  0.00 -0.29   -0.29 -0.00  0.50   
      3   AG               0.50  0.00 -0.29   -0.50 -0.00 -0.29   -0.29 -0.00 -0.50   

  ==> Thermochemistry Components <==

  Entropy, S
    Electronic S            0.000 [cal/(mol K)]        0.000 [J/(mol K)]       0.00000000 [mEh/K] (multiplicity = 1)
    Translational S        43.192 [cal/(mol K)]      180.714 [J/(mol K)]       0.06883047 [mEh/K] (mol. weight = 320.7153 [u], P = 101325.00 [Pa])
    Rotational S           28.633 [cal/(mol K)]      119.800 [J/(mol K)]       0.04562951 [mEh/K] (symmetry no. = 2)
    Vibrational S           7.401 [cal/(mol K)]       30.967 [J/(mol K)]       0.01179457 [mEh/K]
  Total S                  79.226 [cal/(mol K)]      331.481 [J/(mol K)]       0.12625455 [mEh/K]
  Correction S              0.000 [cal/(mol K)]        0.000 [J/(mol K)]       0.00000000 [mEh/K]

  Constant volume heat capacity, Cv
    Electronic Cv           0.000 [cal/(mol K)]        0.000 [J/(mol K)]       0.00000000 [mEh/K]
    Translational Cv        2.981 [cal/(mol K)]       12.472 [J/(mol K)]       0.00475022 [mEh/K]
    Rotational Cv           2.981 [cal/(mol K)]       12.472 [J/(mol K)]       0.00475022 [mEh/K]
    Vibrational Cv          5.624 [cal/(mol K)]       23.531 [J/(mol K)]       0.00896267 [mEh/K]
  Total Cv                 11.586 [cal/(mol K)]       48.475 [J/(mol K)]       0.01846311 [mEh/K]
  Correction Cv             0.000 [cal/(mol K)]        0.000 [J/(mol K)]       0.00000000 [mEh/K]

  Constant pressure heat capacity, Cp
    Electronic Cp           0.000 [cal/(mol K)]        0.000 [J/(mol K)]       0.00000000 [mEh/K]
    Translational Cp        4.968 [cal/(mol K)]       20.786 [J/(mol K)]       0.00791703 [mEh/K]
    Rotational Cp           2.981 [cal/(mol K)]       12.472 [J/(mol K)]       0.00475022 [mEh/K]
    Vibrational Cp          5.624 [cal/(mol K)]       23.531 [J/(mol K)]       0.00896267 [mEh/K]
  Total Cp                 13.573 [cal/(mol K)]       56.789 [J/(mol K)]       0.02162992 [mEh/K]
  Correction Cp             0.000 [cal/(mol K)]        0.000 [J/(mol K)]       0.00000000 [mEh/K]

  ==> Thermochemistry Energy Analysis <==

  Raw electronic energy, E0
  Total E0, Electronic energy at well bottom at 0 [K]                 -439.92020578 [Eh]

  Zero-point energy, ZPE_vib = Sum_i nu_i / 2
    Electronic ZPE          0.000 [kcal/mol]        0.000 [kJ/mol]       0.00000000 [Eh]
    Translational ZPE       0.000 [kcal/mol]        0.000 [kJ/mol]       0.00000000 [Eh]
    Rotational ZPE          0.000 [kcal/mol]        0.000 [kJ/mol]       0.00000000 [Eh]
    Vibrational ZPE         0.733 [kcal/mol]        3.068 [kJ/mol]       0.00116872 [Eh]         256.504 [cm^-1]
  Correction ZPE            0.733 [kcal/mol]        3.068 [kJ/mol]       0.00116872 [Eh]         256.504 [cm^-1]
  Total ZPE, Electronic energy at 0 [K]                               -439.91903707 [Eh]

  Thermal Energy, E (includes ZPE)
    Electronic E            0.000 [kcal/mol]        0.000 [kJ/mol]       0.00000000 [Eh]
    Translational E         0.889 [kcal/mol]        3.718 [kJ/mol]       0.00141628 [Eh]
    Rotational E            0.889 [kcal/mol]        3.718 [kJ/mol]       0.00141628 [Eh]
    Vibrational E           1.881 [kcal/mol]        7.869 [kJ/mol]       0.00299714 [Eh]
  Correction E              3.658 [kcal/mol]       15.306 [kJ/mol]       0.00582969 [Eh]
  Total E, Electronic energy at  298.15 [K]                           -439.91437609 [Eh]

  Enthalpy, H_trans = E_trans + k_B * T
    Electronic H            0.000 [kcal/mol]        0.000 [kJ/mol]       0.00000000 [Eh]
    Translational H         1.481 [kcal/mol]        6.197 [kJ/mol]       0.00236046 [Eh]
    Rotational H            0.889 [kcal/mol]        3.718 [kJ/mol]       0.00141628 [Eh]
    Vibrational H           1.881 [kcal/mol]        7.869 [kJ/mol]       0.00299714 [Eh]
  Correction H              4.251 [kcal/mol]       17.785 [kJ/mol]       0.00677387 [Eh]
  Total H, Enthalpy at  298.15 [K]                                    -439.91343191 [Eh]

  Gibbs free energy, G = H - T * S
    Electronic G            0.000 [kcal/mol]        0.000 [kJ/mol]       0.00000000 [Eh]
    Translational G       -11.396 [kcal/mol]      -47.683 [kJ/mol]      -0.01816134 [Eh]
    Rotational G           -7.648 [kcal/mol]      -32.000 [kJ/mol]      -0.01218816 [Eh]
    Vibrational G          -0.326 [kcal/mol]       -1.364 [kJ/mol]      -0.00051942 [Eh]
  Correction G            -19.371 [kcal/mol]      -81.046 [kJ/mol]      -0.03086892 [Eh]
  Total G, Free enthalpy at  298.15 [K]                               -439.95107470 [Eh]

    Psi4 stopped on: Tuesday, 02 November 2021 04:27PM
    Psi4 wall time for execution: 0:43:53.24

*** Psi4 exiting successfully. Buy a developer a beer!
