Optimizer: Optimization complete!
 6 displacements needed.
 1 2 3 4 5 6
Warning: used thermodynamics relations inappropriate for low-frequency modes: ['69.0989' '108.5797' '181.9735']
At level 1: Red. Int., RFO, no backsteps, dynamic trust
At level 1: Red. Int., RFO, no backsteps, dynamic trust
At level 1: Red. Int., RFO, no backsteps, dynamic trust
At level 1: Red. Int., RFO, no backsteps, dynamic trust
At level 1: Red. Int., RFO, no backsteps, dynamic trust
At level 1: Red. Int., RFO, no backsteps, dynamic trust
At level 1: Red. Int., RFO, no backsteps, dynamic trust
At level 1: Red. Int., RFO, no backsteps, dynamic trust
At level 1: Red. Int., RFO, no backsteps, dynamic trust
put. 13(7) pp 3185--3197 (2017).
    (doi: 10.1021/acs.jctc.7b00174)


                         Additional Contributions by
    P. Kraus, H. Kruse, M. H. Lechner, M. C. Schieber, R. A. Shaw,
    A. Alenaizan, R. Galvelis, Z. L. Glick, S. Lehtola, and J. P. Misiewicz

    -----------------------------------------------------------------------


    Psi4 started on: Friday, 29 October 2021 08:37AM

    Process ID: 210865
    Host:       bp1-compute00072.data.bp.acrc.priv
    PSIDATADIR: /work/zw18965/.conda/envs/p4env/share/psi4
    Memory:     500.0 MiB
    Threads:    24
    
  ==> Input File <==

--------------------------------------------------------------------------
memory 144 GB

molecule {
0 2
Ag       0.000000    1.533951   -0.000000 
Ag       1.328441   -0.766976    0.000000 
Ag      -1.328441   -0.766976   -0.000000 
 }

set reference uks
set dynamic_level 1
set basis Def2-TZVPPD

optimize("MN15-D3BJ")
frequencies("MN15-D3BJ")
--------------------------------------------------------------------------

  Memory set to 134.110 GiB by Python driver.
gradient() will perform analytic gradient computation.

*** tstart() called on bp1-compute00072.data.bp.acrc.priv
*** at Fri Oct 29 08:37:59 2021

   => Loading Basis Set <=

    Name: DEF2-TZVPPD
    Role: ORBITAL
    Keyword: BASIS
    atoms 1-3 entry AG         line  2174 (ECP: line  3646) file /work/zw18965/.conda/envs/p4env/share/psi4/basis/def2-tzvppd.gbs 

    !!!  WARNING: ECP capability is in beta. Please check occupations closely.  !!!


         ---------------------------------------------------------
                                   SCF
               by Justin Turney, Rob Parrish, Andy Simmonett
                          and Daniel G. A. Smith
                              UKS Reference
                       24 Threads, 137329 MiB Core
         ---------------------------------------------------------

  ==> Geometry <==

    Molecular point group: c2v
    Full point group: C2v

    Geometry (in Angstrom), charge = 0, multiplicity = 2:

       Center              X                  Y                   Z               Mass       
    ------------   -----------------  -----------------  -----------------  -----------------
         AG           0.000000000000    -0.000000000000     1.533951333333   106.905091600000
         AG           1.328441000000     0.000000000000    -0.766975666667   106.905091600000
         AG          -1.328441000000    -0.000000000000    -0.766975666667   106.905091600000

  Running in c2v symmetry.

  Rotational constants: A =      0.04468  B =      0.04468  C =      0.02234 [cm^-1]
  Rotational constants: A =   1339.38178  B =   1339.38143  C =    669.69080 [MHz]
  Nuclear repulsion =  215.703579372583732

  Charge       = 0
  Multiplicity = 2
  Electrons    = 57
  Nalpha       = 29
  Nbeta        = 28

  ==> Algorithm <==

  SCF Algorithm Type is DF.
  DIIS enabled.
  MOM disabled.
  Fractional occupation disabled.
  Guess Type is SAD.
  Energy threshold   = 1.00e-08
  Density threshold  = 1.00e-08
  Integral threshold = 0.00e+00

  ==> Primary Basis <==

  Basis Set: DEF2-TZVPPD
    Blend: DEF2-TZVPPD
    Number of shells: 48
    Number of basis function: 168
    Number of Cartesian functions: 213
    Spherical Harmonics?: true
    Max angular momentum: 4

  Core potential: DEF2-TZVPPD
    Number of shells: 12
    Number of ECP primitives: 42
    Number of ECP core electrons: 84
    Max angular momentum: 3

  ==> DFT Potential <==

   => Composite Functional: MN15-D3BJ <= 

   MN15 Hybrid Meta-GGA Exchange-Correlation Functional

    H. S. Yu, X. He, S. L. Li, and D. G. Truhlar, Chem. Sci. 7, 5032-5051, 2016


    Deriv               =              1
    GGA                 =           TRUE
    Meta                =           TRUE

    Exchange Hybrid     =           TRUE
    MP2 Hybrid          =          FALSE

   => Exchange Functionals <=

    1.0000   XC_HYB_MGGA_X_MN15

   => Exact (HF) Exchange <=

    0.4400               HF 

   => Correlation Functionals <=

    1.0000   XC_MGGA_C_MN15

   => Molecular Quadrature <=

    Radial Scheme          =       TREUTLER
    Pruning Scheme         =           FLAT
    Nuclear Scheme         =       TREUTLER

    BS radius alpha        =              1
    Pruning alpha          =              1
    Radial Points          =             75
    Spherical Points       =            302
    Total Points           =          67397
    Total Blocks           =            591
    Max Points             =            255
    Max Functions          =            166

   => MN15-D3(BJ): Empirical Dispersion <=

    Grimme's -D3 (BJ-damping) Dispersion Correction
    Grimme S.; Ehrlich S.; Goerigk L. (2011), J. Comput. Chem., 32: 1456
    Parametrisation from:    L. Goerigk, A. Hansen, C. Bauer, S. Ehrlich, A. Najibi, S. Grimme, Phys. Chem. Chem. Phys. 19, 32184-32215, 2017

        s6 =       1.000000
        s8 =       2.097100
        a1 =       0.786200
        a2 =       7.592300

   => Loading Basis Set <=

    Name: (DEF2-TZVPPD AUX)
    Role: JKFIT
    Keyword: DF_BASIS_SCF
    atoms 1-3 entry AG         line  4369 file /work/zw18965/.conda/envs/p4env/share/psi4/basis/def2-tzvpp-jkfit.gbs 

  ==> Pre-Iterations <==

   -------------------------------------------------------
    Irrep   Nso     Nmo     Nalpha   Nbeta   Ndocc  Nsocc
   -------------------------------------------------------
     A1        59      59       0       0       0       0
     A2        27      27       0       0       0       0
     B1        49      49       0       0       0       0
     B2        33      33       0       0       0       0
   -------------------------------------------------------
    Total     168     168      29      28      28       1
   -------------------------------------------------------

  ==> Integral Setup <==

  DFHelper Memory: AOs need 0.176 GiB; user supplied 99.986 GiB. Using in-core AOs.

  ==> MemDFJK: Density-Fitted J/K Matrices <==

    J tasked:                   Yes
    K tasked:                   Yes
    wK tasked:                   No
    OpenMP threads:              24
    Memory [MiB]:            102385
    Algorithm:                 Core
    Schwarz Cutoff:           1E-12
    Mask sparsity (%):       1.2472
    Fitting Condition:        1E-10

   => Auxiliary Basis Set <=

  Basis Set: (DEF2-TZVPPD AUX)
    Blend: DEF2-TZVPP-JKFIT
    Number of shells: 147
    Number of basis function: 765
    Number of Cartesian functions: 1152
    Spherical Harmonics?: true
    Max angular momentum: 6

  Cached 100.0% of DFT collocation blocks in 0.597 [GiB].

  Minimum eigenvalue in the overlap matrix is 2.9352212695E-03.
  Using Symmetric Orthogonalization.

  SCF Guess: Superposition of Atomic Densities via on-the-fly atomic UHF.

  ==> Iterations <==

                           Total Energy        Delta E     RMS |[F,P]|

   @DF-UKS iter SAD:  -439.47698846021888   -4.39477e+02   0.00000e+00 
   @DF-UKS iter   1:  -440.07158373675156   -5.94595e-01   4.92370e-03 DIIS
   @DF-UKS iter   2:  -440.05956155875037    1.20222e-02   5.82040e-03 DIIS
   @DF-UKS iter   3:  -440.13043367856437   -7.08721e-02   2.68490e-04 DIIS
   @DF-UKS iter   4:  -440.13071825349687   -2.84575e-04   1.45986e-04 DIIS
   @DF-UKS iter   5:  -440.13080101751643   -8.27640e-05   9.30408e-05 DIIS
   @DF-UKS iter   6:  -440.13084578654502   -4.47690e-05   2.16665e-05 DIIS
   @DF-UKS iter   7:  -440.13085271417197   -6.92763e-06   1.31389e-05 DIIS
   @DF-UKS iter   8:  -440.13085452384905   -1.80968e-06   5.37436e-06 DIIS
   @DF-UKS iter   9:  -440.13085480898815   -2.85139e-07   1.76395e-06 DIIS
   @DF-UKS iter  10:  -440.13085493058338   -1.21595e-07   8.47052e-07 DIIS
   @DF-UKS iter  11:  -440.13085495873236   -2.81490e-08   4.90988e-07 DIIS
   @DF-UKS iter  12:  -440.13085496601525   -7.28289e-09   2.04476e-07 DIIS
   @DF-UKS iter  13:  -440.13085496742701   -1.41176e-09   5.77343e-08 DIIS
   @DF-UKS iter  14:  -440.13085496752126   -9.42464e-11   2.57301e-08 DIIS
   @DF-UKS iter  15:  -440.13085496753308   -1.18234e-11   1.28110e-08 DIIS
   @DF-UKS iter  16:  -440.13085496753502   -1.93268e-12   6.78337e-09 DIIS
  Energy and wave function converged.


  ==> Post-Iterations <==

   @Spin Contamination Metric:   1.268197494E-02
   @S^2 Expected:                7.500000000E-01
   @S^2 Observed:                7.626819749E-01
   @S   Expected:                5.000000000E-01
   @S   Observed:                5.000000000E-01

    Orbital Energies [Eh]
    ---------------------

    Alpha Occupied:                                                       

       1A1    -3.665554     2A1    -3.645826     1B1    -3.645424  
       3A1    -2.317430     1B2    -2.314920     2B1    -2.314634  
       4A1    -2.298420     3B1    -2.294971     5A1    -2.294753  
       4B1    -2.293157     2B2    -2.293024     1A2    -2.292637  
       6A1    -0.429247     5B1    -0.416419     3B2    -0.409709  
       7A1    -0.406544     2A2    -0.395933     8A1    -0.394312  
       4B2    -0.383857     9A1    -0.370165    10A1    -0.365637  
       5B2    -0.363941     3A2    -0.362367     6B1    -0.361495  
       4A2    -0.354512     7B1    -0.354406     8B1    -0.340172  
      11A1    -0.288095     9B1    -0.168695  

    Alpha Virtual:                                                        

      12A1    -0.095208     6B2    -0.028543    13A1    -0.004480  
      10B1     0.009237    14A1     0.019342     5A2     0.052047  
       7B2     0.062998    11B1     0.105944    15A1     0.116444  
      12B1     0.117217    16A1     0.145402    17A1     0.195288  
      13B1     0.200128    18A1     0.204772     8B2     0.206296  
      14B1     0.218289    19A1     0.224278     9B2     0.265377  
       6A2     0.268009    15B1     0.336722    20A1     0.386569  
      21A1     0.393810    16B1     0.396575     7A2     0.420120  
      10B2     0.424660    11B2     0.439835    22A1     0.527490  
      17B1     0.530604     8A2     0.572172    23A1     0.597137  
      12B2     0.624954     9A2     0.630628    18B1     0.635113  
      24A1     0.637215    25A1     0.711238    19B1     0.715231  
      20B1     0.767183    21B1     1.470750    26A1     1.472060  
      27A1     1.507532    28A1     1.517306    13B2     1.541843  
      10A2     1.544364    14B2     1.554168    22B1     1.568886  
      15B2     1.572231    29A1     1.579534    16B2     1.590920  
      23B1     1.595070    11A2     1.597479    17B2     1.598913  
      12A2     1.609070    30A1     1.621317    24B1     1.623696  
      31A1     1.633868    13A2     1.640071    18B2     1.640138  
      25B1     1.644417    32A1     1.683887    26B1     1.689090  
      27B1     1.692863    33A1     1.720418    19B2     1.730937  
      14A2     1.737691    28B1     1.764412    34A1     1.766461  
      29B1     1.909224    35A1     1.948365    36A1     2.038047  
      15A2     2.044237    20B2     2.053117    37A1     2.079458  
      21B2     2.079951    30B1     2.082817    16A2     2.099694  
      31B1     2.107839    38A1     2.108230    22B2     2.120332  
      17A2     2.127764    39A1     2.208560    32B1     2.213623  
      33B1     2.238253    40A1     2.344109    41A1     2.495509  
      34B1     2.501166    42A1     4.555998    35B1     4.570949  
      43A1     4.571658    23B2     4.577753    18A2     4.581100  
      24B2     4.590020    44A1     4.593766    25B2     4.601322  
      36B1     4.602626    45A1     4.616120    26B2     4.619327  
      19A2     4.625389    37B1     4.627214    20A2     4.663158  
      46A1     4.679947    27B2     4.684107    38B1     4.689455  
      21A2     4.689876    47A1     4.835280    39B1     4.836019  
      40B1     4.853010    48A1     5.405276    28B2     5.405599  
      22A2     5.406906    29B2     5.407879    49A1     5.408690  
      41B1     5.408724    50A1     5.410097    23A2     5.410176  
      42B1     5.410262    51A1     5.426099    43B1     5.427203  
      24A2     5.427229    30B2     5.427317    44B1     5.427512  
      25A2     5.428007    52A1     5.428345    31B2     5.428520  
      53A1     5.429430    32B2     5.429543    26A2     5.430502  
      45B1     5.430609    33B2     5.431090    54A1     5.431213  
      46B1     5.431380    27A2     5.431533    55A1     5.436416  
      47B1     5.436721    56A1    32.816294    57A1    33.144253  
      48B1    33.153879    58A1   110.557866    59A1   110.659170  
      49B1   110.670063  

    Beta Occupied:                                                        

       1A1    -3.665569     2A1    -3.645041     1B1    -3.644638  
       3A1    -2.317048     1B2    -2.314862     2B1    -2.314505  
       4A1    -2.296390     5A1    -2.294888     3B1    -2.294835  
       2B2    -2.292817     1A2    -2.292398     4B1    -2.291110  
       6A1    -0.427875     5B1    -0.414675     3B2    -0.409244  
       7A1    -0.404110     2A2    -0.395326     8A1    -0.391957  
       4B2    -0.381570     9A1    -0.368667    10A1    -0.364300  
       5B2    -0.362486     3A2    -0.360746     6B1    -0.358926  
       7B1    -0.350585     4A2    -0.350560     8B1    -0.335988  
      11A1    -0.276924  

    Beta Virtual:                                                         

      12A1    -0.087749     9B1    -0.066748     6B2    -0.021462  
      13A1     0.022314    10B1     0.034738    14A1     0.044513  
       7B2     0.068179     5A2     0.082083    15A1     0.128295  
      11B1     0.135429    12B1     0.151427    16A1     0.151762  
      17A1     0.203199     8B2     0.213022    18A1     0.213768  
      13B1     0.220794    14B1     0.235444    19A1     0.239532  
       9B2     0.266439     6A2     0.278325    15B1     0.340087  
      20A1     0.388823    21A1     0.392308    16B1     0.398892  
       7A2     0.421604    10B2     0.424334    11B2     0.436198  
      22A1     0.525900    17B1     0.534026     8A2     0.570419  
      23A1     0.592265    12B2     0.620492     9A2     0.627385  
      24A1     0.634750    18B1     0.635001    25A1     0.707016  
      19B1     0.711430    20B1     0.765495    21B1     1.473557  
      26A1     1.475186    27A1     1.512651    28A1     1.521659  
      13B2     1.543736    10A2     1.546692    14B2     1.561177  
      22B1     1.570135    15B2     1.573249    29A1     1.584572  
      16B2     1.596433    17B2     1.599555    23B1     1.599581  
      11A2     1.603234    12A2     1.614314    30A1     1.624024  
      24B1     1.629128    31A1     1.635038    18B2     1.642119  
      13A2     1.644537    25B1     1.651023    32A1     1.686104  
      26B1     1.693828    27B1     1.698696    33A1     1.724761  
      19B2     1.732240    14A2     1.741300    28B1     1.766982  
      34A1     1.772645    29B1     1.912156    35A1     1.951924  
      36A1     2.041687    15A2     2.045900    20B2     2.058156  
      21B2     2.082290    37A1     2.082993    30B1     2.088816  
      16A2     2.103605    31B1     2.112712    38A1     2.112939  
      22B2     2.121915    17A2     2.133349    39A1     2.209477  
      32B1     2.217295    33B1     2.241276    40A1     2.343270  
      41A1     2.494998    34B1     2.504166    42A1     4.557584  
      35B1     4.572447    43A1     4.573105    23B2     4.578351  
      18A2     4.582096    24B2     4.592614    44A1     4.596113  
      25B2     4.602049    36B1     4.603229    45A1     4.618589  
      26B2     4.621689    19A2     4.628072    37B1     4.629709  
      20A2     4.665007    46A1     4.681509    27B2     4.685539  
      38B1     4.692739    21A2     4.692993    47A1     4.837003  
      39B1     4.837929    40B1     4.856410    48A1     5.405284  
      28B2     5.405503    22A2     5.406962    29B2     5.407845  
      41B1     5.408702    49A1     5.408749    50A1     5.409787  
      23A2     5.409830    42B1     5.410446    51A1     5.427669  
      24A2     5.428065    30B2     5.428504    43B1     5.428534  
      44B1     5.428651    25A2     5.428781    52A1     5.429159  
      31B2     5.429795    32B2     5.429986    53A1     5.430497  
      45B1     5.430658    26A2     5.430945    33B2     5.431626  
      54A1     5.431757    46B1     5.432063    27A2     5.432817  
      55A1     5.437383    47B1     5.438200    56A1    32.820683  
      57A1    33.146467    48B1    33.161000    58A1   110.559179  
      59A1   110.660052    49B1   110.672482  

    Final Occupation by Irrep:
             A1    A2    B1    B2 
    DOCC [    11,    4,    8,    5 ]
    SOCC [     0,    0,    1,    0 ]

  @DF-UKS Final Energy:  -440.13085496753502

   => Energetics <=

    Nuclear Repulsion Energy =            215.7035793725837323
    One-Electron Energy =               -1212.8127736344813457
    Two-Electron Energy =                 580.9514470633763494
    DFT Exchange-Correlation Energy =     -23.9729787590137065
    Empirical Dispersion Energy =          -0.0001290100000000
    VV10 Nonlocal Energy =                  0.0000000000000000
    Total Energy =                       -440.1308549675350150

  UHF NO Occupations:
  HONO-2 :    8 B1 1.9998526
  HONO-1 :   11 A1 1.9942620
  HONO-0 :    9 B1 1.0000000
  LUNO+0 :   12 A1 0.0057380
  LUNO+1 :   10 B1 0.0001474
  LUNO+2 :   13 A1 0.0001260
  LUNO+3 :    6 B2 0.0000966


Computation Completed


Properties will be evaluated at   0.000000,   0.000000,   0.000000 [a0]

Properties computed using the SCF density matrix

  Nuclear Dipole Moment: [e a0]
     X:    -0.0000      Y:    -0.0000      Z:     0.0000

  Electronic Dipole Moment: [e a0]
     X:     0.0000      Y:     0.0000      Z:     0.4549

  Dipole Moment: [e a0]
     X:    -0.0000      Y:    -0.0000      Z:     0.4549     Total:     0.4549

  Dipole Moment: [D]
     X:    -0.0000      Y:    -0.0000      Z:     1.1561     Total:     1.1561


*** tstop() called on bp1-compute00072.data.bp.acrc.priv at Fri Oct 29 08:38:21 2021
Module time:
	user time   =     394.58 seconds =       6.58 minutes
	system time =      17.29 seconds =       0.29 minutes
	total time  =         22 seconds =       0.37 minutes
Total time:
	user time   =     394.58 seconds =       6.58 minutes
	system time =      17.29 seconds =       0.29 minutes
	total time  =         22 seconds =       0.37 minutes

*** tstart() called on bp1-compute00072.data.bp.acrc.priv
*** at Fri Oct 29 08:38:21 2021


         ------------------------------------------------------------
                                   SCF GRAD                          
                          Rob Parrish, Justin Turney,                
                       Andy Simmonett, and Alex Sokolov              
         ------------------------------------------------------------

  ==> Geometry <==

    Molecular point group: c2v
    Full point group: C2v

    Geometry (in Angstrom), charge = 0, multiplicity = 2:

       Center              X                  Y                   Z               Mass       
    ------------   -----------------  -----------------  -----------------  -----------------
         AG           0.000000000000    -0.000000000000     1.533951333333   106.905091600000
         AG           1.328441000000     0.000000000000    -0.766975666667   106.905091600000
         AG          -1.328441000000    -0.000000000000    -0.766975666667   106.905091600000

  Nuclear repulsion =  215.703579372583732

  ==> Basis Set <==

  Basis Set: DEF2-TZVPPD
    Blend: DEF2-TZVPPD
    Number of shells: 48
    Number of basis function: 168
    Number of Cartesian functions: 213
    Spherical Harmonics?: true
    Max angular momentum: 4

  Core potential: DEF2-TZVPPD
    Number of shells: 12
    Number of ECP primitives: 42
    Number of ECP core electrons: 84
    Max angular momentum: 3

  ==> DFJKGrad: Density-Fitted SCF Gradients <==

    Gradient:                    1
    J tasked:                  Yes
    K tasked:                  Yes
    wK tasked:                  No
    OpenMP threads:             24
    Integrals threads:          24
    Memory [MiB]:           102996
    Schwarz Cutoff:          0E+00
    Fitting Condition:       1E-10

   => Auxiliary Basis Set <=

  Basis Set: (DEF2-TZVPPD AUX)
    Blend: DEF2-TZVPP-JKFIT
    Number of shells: 147
    Number of basis function: 765
    Number of Cartesian functions: 1152
    Spherical Harmonics?: true
    Max angular momentum: 6

  ==> DFT Potential <==

   => Composite Functional: MN15-D3BJ <= 

   MN15 Hybrid Meta-GGA Exchange-Correlation Functional

    H. S. Yu, X. He, S. L. Li, and D. G. Truhlar, Chem. Sci. 7, 5032-5051, 2016


    Deriv               =              1
    GGA                 =           TRUE
    Meta                =           TRUE

    Exchange Hybrid     =           TRUE
    MP2 Hybrid          =          FALSE

   => Exchange Functionals <=

    1.0000   XC_HYB_MGGA_X_MN15

   => Exact (HF) Exchange <=

    0.4400               HF 

   => Correlation Functionals <=

    1.0000   XC_MGGA_C_MN15

   => Molecular Quadrature <=

    Radial Scheme          =       TREUTLER
    Pruning Scheme         =           FLAT
    Nuclear Scheme         =       TREUTLER

    BS radius alpha        =              1
    Pruning alpha          =              1
    Radial Points          =             75
    Spherical Points       =            302
    Total Points           =          67397
    Total Blocks           =            591
    Max Points             =            255
    Max Functions          =            166


  -Total Gradient:
     Atom            X                  Y                   Z
    ------   -----------------  -----------------  -----------------
       1        0.000000000000    -0.000000000000    -0.162983891542
       2       -0.124254537237    -0.000000000000     0.081547103052
       3        0.124254537237     0.000000000000     0.081547103052


*** tstop() called on bp1-compute00072.data.bp.acrc.priv at Fri Oct 29 08:38:28 2021
Module time:
	user time   =      85.68 seconds =       1.43 minutes
	system time =       4.73 seconds =       0.08 minutes
	total time  =          7 seconds =       0.12 minutes
Total time:
	user time   =     481.08 seconds =       8.02 minutes
	system time =      22.09 seconds =       0.37 minutes
	total time  =         29 seconds =       0.48 minutes


  ==> Adding ECP gradient terms (computed numerically) <==

  -ECP Gradient:
     Atom            X                  Y                   Z
    ------   -----------------  -----------------  -----------------
       1        0.000000000000    -0.000000000000     0.168274092616
       2        0.112086855199     0.000000000000    -0.084137046468
       3       -0.112086855199    -0.000000000000    -0.084137046468


  -Total Gradient:
     Atom            X                  Y                   Z
    ------   -----------------  -----------------  -----------------
       1        0.000000000000    -0.000000000000     0.005290201074
       2       -0.012167682038    -0.000000000000    -0.002589943416
       3        0.012167682038     0.000000000000    -0.002589943416


			-----------------------------------------
			 OPTKING 2.0: for geometry optimizations 
			  - R.A. King,  Bethel University        
			-----------------------------------------
	At level 1: Red. Int., RFO, no backsteps, dynamic trust

	Internal coordinates to be generated automatically.
	Detected frag 1 with atoms:  1 2 3
	---Fragment 1 Bond Connectivity---
	 1 : 2 3
	 2 : 1 3
	 3 : 1 2

	---Fragment 1 Geometry and Gradient---
	 AG          0.0000000000       -0.0000000000        2.8987479098
	 AG          2.5103896638        0.0000000000       -1.4493739549
	 AG         -2.5103896638       -0.0000000000       -1.4493739549
	             0.0000000000       -0.0000000000        0.0052902011
	            -0.0121676820       -0.0000000000       -0.0025899434
	             0.0121676820        0.0000000000       -0.0025899434

	Previous optimization step data not found.  Starting new optimization.

	---Fragment 1 Intrafragment Coordinates---
	 - Coordinate -           - BOHR/RAD -       - ANG/DEG -
	 R(1,2)           =         5.020779	       2.656882
	 R(1,3)           =         5.020779	       2.656882
	 R(2,3)           =         5.020779	       2.656882
	 B(1,2,3)         =         1.047197	      59.999997
	 B(1,3,2)         =         1.047197	      59.999997
	 B(2,1,3)         =         1.047198	      60.000007

	Current energy   :      -440.1308549675

	Generating empirical Hessian (Schlegel '84) for each fragment.
	Taking RFO optimization step.
	Going to follow RFO solution 1.
	Using RFO vector 1.
	Norm of target step-size    0.15830
	Projected energy change by RFO approximation:        -0.0040615560

	Back-transformation to cartesian coordinates...
	Successfully converged to displaced geometry.

	--- Internal Coordinate Step in ANG or DEG, aJ/ANG or AJ/DEG ---
	 ---------------------------------------------------------------------------
	   Coordinate                Previous        Force       Change         New 
	   ----------                --------       ------       ------       ------
	    1 R(1,2)          =      2.656882    -0.020106    -0.010267     2.646615
	    2 R(1,3)          =      2.656882    -0.020106    -0.010267     2.646615
	    3 R(2,3)          =      2.656882     0.102975     0.078538     2.735420
	    4 B(1,2,3)        =     59.999997    -0.000131    -1.116315    58.883682
	    5 B(1,3,2)        =     59.999997    -0.000131    -1.116315    58.883682
	    6 B(2,1,3)        =     60.000007     0.000261     2.232630    62.232637
	 ---------------------------------------------------------------------------
	Successfully symmetrized geometry.

  ==> Convergence Check <==

  Measures of convergence in internal coordinates in au.
  Criteria marked as inactive (o), active & met (*), and active & unmet ( ).
  --------------------------------------------------------------------------------------------- ~
   Step     Total Energy     Delta E     MAX Force     RMS Force      MAX Disp      RMS Disp    ~
  --------------------------------------------------------------------------------------------- ~
    Convergence Criteria    1.00e-06 *    3.00e-04 *             o    1.20e-03 *             o  ~
  --------------------------------------------------------------------------------------------- ~
      1    -440.13085497   -4.40e+02      1.25e-02      5.57e-03 o    1.48e-01      6.46e-02 o  ~
  ---------------------------------------------------------------------------------------------

	Writing optimization data to binary file.
	Structure for next step:
	Cartesian Geometry (in Angstrom)
	   AG     0.0000000000   0.0000000000   1.5105463258
	   AG     1.3677100061   0.0000000000  -0.7552731629
	   AG    -1.3677100061  -0.0000000000  -0.7552731629
			--------------------------
			 OPTKING Finished Execution 
			--------------------------

    Structure for next step:
    Molecular point group: c2v
    Full point group: C2v

    Geometry (in Angstrom), charge = 0, multiplicity = 2:

    AG           0.000000000000    -0.000000000000     1.510546331724
    AG           1.367710011457     0.000000000000    -0.755273165862
    AG          -1.367710011457    -0.000000000000    -0.755273165862

gradient() will perform analytic gradient computation.

*** tstart() called on bp1-compute00072.data.bp.acrc.priv
*** at Fri Oct 29 08:40:47 2021

   => Loading Basis Set <=

    Name: DEF2-TZVPPD
    Role: ORBITAL
    Keyword: BASIS
    atoms 1-3 entry AG         line  2174 (ECP: line  3646) file /work/zw18965/.conda/envs/p4env/share/psi4/basis/def2-tzvppd.gbs 

    !!!  WARNING: ECP capability is in beta. Please check occupations closely.  !!!


         ---------------------------------------------------------
                                   SCF
               by Justin Turney, Rob Parrish, Andy Simmonett
                          and Daniel G. A. Smith
                              UKS Reference
                       24 Threads, 137329 MiB Core
         ---------------------------------------------------------

  ==> Geometry <==

    Molecular point group: c2v
    Full point group: C2v

    Geometry (in Angstrom), charge = 0, multiplicity = 2:

       Center              X                  Y                   Z               Mass       
    ------------   -----------------  -----------------  -----------------  -----------------
         AG           0.000000000000    -0.000000000000     1.510546331724   106.905091600000
         AG           1.367710011457     0.000000000000    -0.755273165862   106.905091600000
         AG          -1.367710011457    -0.000000000000    -0.755273165862   106.905091600000

  Running in c2v symmetry.

  Rotational constants: A =      0.04607  B =      0.04215  C =      0.02201 [cm^-1]
  Rotational constants: A =   1381.20916  B =   1263.57424  C =    659.88780 [MHz]
  Nuclear repulsion =  214.197049124111430

  Charge       = 0
  Multiplicity = 2
  Electrons    = 57
  Nalpha       = 29
  Nbeta        = 28

  ==> Algorithm <==

  SCF Algorithm Type is DF.
  DIIS enabled.
  MOM disabled.
  Fractional occupation disabled.
  Guess Type is READ.
  Energy threshold   = 1.00e-08
  Density threshold  = 1.00e-08
  Integral threshold = 0.00e+00

  ==> Primary Basis <==

  Basis Set: DEF2-TZVPPD
    Blend: DEF2-TZVPPD
    Number of shells: 48
    Number of basis function: 168
    Number of Cartesian functions: 213
    Spherical Harmonics?: true
    Max angular momentum: 4

  Core potential: DEF2-TZVPPD
    Number of shells: 12
    Number of ECP primitives: 42
    Number of ECP core electrons: 84
    Max angular momentum: 3

  ==> DFT Potential <==

   => Composite Functional: MN15-D3BJ <= 

   MN15 Hybrid Meta-GGA Exchange-Correlation Functional

    H. S. Yu, X. He, S. L. Li, and D. G. Truhlar, Chem. Sci. 7, 5032-5051, 2016


    Deriv               =              1
    GGA                 =           TRUE
    Meta                =           TRUE

    Exchange Hybrid     =           TRUE
    MP2 Hybrid          =          FALSE

   => Exchange Functionals <=

    1.0000   XC_HYB_MGGA_X_MN15

   => Exact (HF) Exchange <=

    0.4400               HF 

   => Correlation Functionals <=

    1.0000   XC_MGGA_C_MN15

   => Molecular Quadrature <=

    Radial Scheme          =       TREUTLER
    Pruning Scheme         =           FLAT
    Nuclear Scheme         =       TREUTLER

    BS radius alpha        =              1
    Pruning alpha          =              1
    Radial Points          =             75
    Spherical Points       =            302
    Total Points           =          67395
    Total Blocks           =            593
    Max Points             =            255
    Max Functions          =            166

   => MN15-D3(BJ): Empirical Dispersion <=

    Grimme's -D3 (BJ-damping) Dispersion Correction
    Grimme S.; Ehrlich S.; Goerigk L. (2011), J. Comput. Chem., 32: 1456
    Parametrisation from:    L. Goerigk, A. Hansen, C. Bauer, S. Ehrlich, A. Najibi, S. Grimme, Phys. Chem. Chem. Phys. 19, 32184-32215, 2017

        s6 =       1.000000
        s8 =       2.097100
        a1 =       0.786200
        a2 =       7.592300

   => Loading Basis Set <=

    Name: (DEF2-TZVPPD AUX)
    Role: JKFIT
    Keyword: DF_BASIS_SCF
    atoms 1-3 entry AG         line  4369 file /work/zw18965/.conda/envs/p4env/share/psi4/basis/def2-tzvpp-jkfit.gbs 

   => Loading Basis Set <=

    Name: DEF2-TZVPPD
    Role: ORBITAL
    Keyword: BASIS
    atoms 1-3 entry AG         line  2174 (ECP: line  3646) file /work/zw18965/.conda/envs/p4env/share/psi4/basis/def2-tzvppd.gbs 

    !!!  WARNING: ECP capability is in beta. Please check occupations closely.  !!!

  Reading orbitals from file 180, no projection.

  ==> Pre-Iterations <==

   -------------------------------------------------------
    Irrep   Nso     Nmo     Nalpha   Nbeta   Ndocc  Nsocc
   -------------------------------------------------------
     A1        59      59       0       0       0       0
     A2        27      27       0       0       0       0
     B1        49      49       0       0       0       0
     B2        33      33       0       0       0       0
   -------------------------------------------------------
    Total     168     168      29      28      28       1
   -------------------------------------------------------

  ==> Integral Setup <==

  DFHelper Memory: AOs need 0.176 GiB; user supplied 99.989 GiB. Using in-core AOs.

  ==> MemDFJK: Density-Fitted J/K Matrices <==

    J tasked:                   Yes
    K tasked:                   Yes
    wK tasked:                   No
    OpenMP threads:              24
    Memory [MiB]:            102388
    Algorithm:                 Core
    Schwarz Cutoff:           1E-12
    Mask sparsity (%):       1.3889
    Fitting Condition:        1E-10

   => Auxiliary Basis Set <=

  Basis Set: (DEF2-TZVPPD AUX)
    Blend: DEF2-TZVPP-JKFIT
    Number of shells: 147
    Number of basis function: 765
    Number of Cartesian functions: 1152
    Spherical Harmonics?: true
    Max angular momentum: 6

  Cached 100.0% of DFT collocation blocks in 0.594 [GiB].

  Minimum eigenvalue in the overlap matrix is 2.8471760816E-03.
  Using Symmetric Orthogonalization.

  SCF Guess: Orbitals guess was supplied from a previous computation.

  ==> Iterations <==

                           Total Energy        Delta E     RMS |[F,P]|

   @DF-UKS iter   0:  -440.13589351840324   -4.40136e+02   1.06095e-03 
   @DF-UKS iter   1:  -440.13252954801669    3.36397e-03   4.27101e-05 DIIS
   @DF-UKS iter   2:  -440.13253148738022   -1.93936e-06   5.22546e-05 DIIS
   @DF-UKS iter   3:  -440.13253725628090   -5.76890e-06   6.55765e-06 DIIS
   @DF-UKS iter   4:  -440.13253757481618   -3.18535e-07   4.42883e-06 DIIS
   @DF-UKS iter   5:  -440.13253769179869   -1.16983e-07   1.72868e-06 DIIS
   @DF-UKS iter   6:  -440.13253773818326   -4.63846e-08   8.28325e-07 DIIS
   @DF-UKS iter   7:  -440.13253774825921   -1.00760e-08   4.17997e-07 DIIS
   @DF-UKS iter   8:  -440.13253775295891   -4.69970e-09   1.51088e-07 DIIS
   @DF-UKS iter   9:  -440.13253775391752   -9.58607e-10   7.53218e-08 DIIS
   @DF-UKS iter  10:  -440.13253775417729   -2.59774e-10   2.54151e-08 DIIS
   @DF-UKS iter  11:  -440.13253775419946   -2.21689e-11   7.85726e-09 DIIS
  Energy and wave function converged.


  ==> Post-Iterations <==

   @Spin Contamination Metric:   1.315284177E-02
   @S^2 Expected:                7.500000000E-01
   @S^2 Observed:                7.631528418E-01
   @S   Expected:                5.000000000E-01
   @S   Observed:                5.000000000E-01

    Orbital Energies [Eh]
    ---------------------

    Alpha Occupied:                                                       

       1A1    -3.664453     2A1    -3.644915     1B1    -3.644649  
       3A1    -2.316353     1B2    -2.313704     2B1    -2.313568  
       4A1    -2.296705     3B1    -2.294359     5A1    -2.293929  
       4B1    -2.292652     2B2    -2.292284     1A2    -2.292016  
       6A1    -0.427005     5B1    -0.416659     3B2    -0.408326  
       7A1    -0.403766     2A2    -0.395471     8A1    -0.391330  
       4B2    -0.380771     9A1    -0.367663    10A1    -0.364179  
       5B2    -0.362704     6B1    -0.362336     3A2    -0.361762  
       4A2    -0.355967     7B1    -0.355299     8B1    -0.341051  
      11A1    -0.287046     9B1    -0.170673  

    Alpha Virtual:                                                        

      12A1    -0.093526     6B2    -0.028156    13A1    -0.005382  
      10B1     0.008617    14A1     0.020940     5A2     0.050290  
       7B2     0.064273    11B1     0.103593    15A1     0.117046  
      12B1     0.117542    16A1     0.145499    17A1     0.195239  
      13B1     0.200151    18A1     0.204987     8B2     0.206986  
      14B1     0.217857    19A1     0.225708     6A2     0.265891  
       9B2     0.267348    15B1     0.334976    20A1     0.386298  
      16B1     0.387753    21A1     0.396781     7A2     0.420173  
      10B2     0.423774    11B2     0.437791    22A1     0.527818  
      17B1     0.528801     8A2     0.571473    23A1     0.596411  
      12B2     0.626368     9A2     0.628053    24A1     0.634136  
      18B1     0.635393    25A1     0.713030    19B1     0.713468  
      20B1     0.765820    21B1     1.462357    26A1     1.483085  
      27A1     1.520015    28A1     1.528500    13B2     1.542518  
      10A2     1.542969    14B2     1.562908    22B1     1.567712  
      15B2     1.573912    29A1     1.583620    16B2     1.593153  
      23B1     1.595513    11A2     1.596299    17B2     1.602101  
      12A2     1.603078    24B1     1.615931    30A1     1.624369  
      25B1     1.635294    31A1     1.636572    13A2     1.637611  
      18B2     1.640817    26B1     1.677718    32A1     1.685896  
      27B1     1.695188    33A1     1.722683    14A2     1.731942  
      19B2     1.732579    28B1     1.761675    34A1     1.762589  
      29B1     1.907578    35A1     1.944808    36A1     2.039720  
      15A2     2.044908    20B2     2.054544    30B1     2.082359  
      37A1     2.082472    21B2     2.082696    16A2     2.099528  
      31B1     2.104402    38A1     2.120467    22B2     2.122895  
      17A2     2.124950    32B1     2.189596    39A1     2.213824  
      33B1     2.236578    40A1     2.344376    41A1     2.488782  
      34B1     2.496219    42A1     4.559942    35B1     4.570710  
      43A1     4.574894    23B2     4.578336    18A2     4.579805  
      44A1     4.596953    24B2     4.598145    36B1     4.602447  
      25B2     4.604459    45A1     4.619680    26B2     4.621457  
      19A2     4.624550    37B1     4.626939    20A2     4.661263  
      38B1     4.676273    21A2     4.680690    27B2     4.687155  
      46A1     4.687915    39B1     4.812765    47A1     4.840165  
      40B1     4.850192    48A1     5.406397    28B2     5.406784  
      22A2     5.408100    29B2     5.409067    41B1     5.409923  
      49A1     5.410161    42B1     5.411279    50A1     5.411332  
      23A2     5.411378    51A1     5.427427    24A2     5.427917  
      43B1     5.427935    30B2     5.428186    44B1     5.428263  
      25A2     5.428701    52A1     5.429100    31B2     5.429663  
      32B2     5.430026    53A1     5.430103    26A2     5.430969  
      45B1     5.431089    33B2     5.431835    54A1     5.431902  
      46B1     5.432078    27A2     5.432194    47B1     5.435723  
      55A1     5.437434    56A1    32.809810    57A1    33.137543  
      48B1    33.142708    58A1   110.557024    59A1   110.657251  
      49B1   110.667080  

    Beta Occupied:                                                        

       1A1    -3.664465     2A1    -3.644115     1B1    -3.643847  
       3A1    -2.315951     1B2    -2.313639     2B1    -2.313433  
       4A1    -2.294776     3B1    -2.294155     5A1    -2.293973  
       2B2    -2.292062     1A2    -2.291762     4B1    -2.290705  
       6A1    -0.425667     5B1    -0.414844     3B2    -0.407863  
       7A1    -0.401807     2A2    -0.394820     8A1    -0.388525  
       4B2    -0.378369     9A1    -0.366179    10A1    -0.362645  
       5B2    -0.361176     3A2    -0.360119     6B1    -0.359602  
       4A2    -0.352046     7B1    -0.351487     8B1    -0.336992  
      11A1    -0.275575  

    Beta Virtual:                                                         

      12A1    -0.085700     9B1    -0.069016     6B2    -0.020961  
      13A1     0.023871    10B1     0.034149    14A1     0.042741  
       7B2     0.069629     5A2     0.080095    15A1     0.129479  
      11B1     0.135661    12B1     0.147914    16A1     0.151882  
      17A1     0.204021     8B2     0.213531    18A1     0.213844  
      13B1     0.220852    14B1     0.234675    19A1     0.239098  
       9B2     0.268379     6A2     0.276232    15B1     0.338763  
      20A1     0.388864    16B1     0.389830    21A1     0.394847  
       7A2     0.421890    10B2     0.423166    11B2     0.434557  
      22A1     0.526429    17B1     0.532196     8A2     0.569796  
      23A1     0.591494    12B2     0.622012     9A2     0.624870  
      24A1     0.631479    18B1     0.635155    25A1     0.708872  
      19B1     0.709560    20B1     0.764132    21B1     1.465278  
      26A1     1.484856    27A1     1.524584    28A1     1.534930  
      13B2     1.544399    10A2     1.545450    14B2     1.568829  
      22B1     1.569242    15B2     1.575900    29A1     1.589071  
      16B2     1.598643    23B1     1.600261    11A2     1.602309  
      17B2     1.603029    12A2     1.608999    24B1     1.621448  
      30A1     1.627147    31A1     1.637806    13A2     1.641601  
      25B1     1.643277    18B2     1.643310    26B1     1.681814  
      32A1     1.688250    27B1     1.699743    33A1     1.727084  
      19B2     1.733945    14A2     1.735607    28B1     1.764588  
      34A1     1.768883    29B1     1.910259    35A1     1.948416  
      36A1     2.043558    15A2     2.046806    20B2     2.059314  
      21B2     2.085221    37A1     2.085691    30B1     2.088470  
      16A2     2.103657    31B1     2.109258    22B2     2.124678  
      38A1     2.124954    17A2     2.130480    32B1     2.195579  
      39A1     2.214823    33B1     2.238009    40A1     2.343671  
      41A1     2.488206    34B1     2.499224    42A1     4.561390  
      35B1     4.572254    43A1     4.576084    23B2     4.578920  
      18A2     4.580844    44A1     4.599563    24B2     4.599619  
      36B1     4.603104    25B2     4.606336    45A1     4.622274  
      26B2     4.623875    19A2     4.627290    37B1     4.629458  
      20A2     4.663712    38B1     4.679470    21A2     4.683163  
      27B2     4.688640    46A1     4.689577    39B1     4.816391  
      47A1     4.841964    40B1     4.851833    48A1     5.406408  
      28B2     5.406680    22A2     5.408164    29B2     5.409042  
      41B1     5.409910    49A1     5.410200    23A2     5.411012  
      50A1     5.411037    42B1     5.411474    24A2     5.428743  
      51A1     5.428979    43B1     5.429226    30B2     5.429261  
      25A2     5.429478    44B1     5.429511    52A1     5.429822  
      31B2     5.430445    32B2     5.430934    53A1     5.431163  
      45B1     5.431214    26A2     5.431560    54A1     5.432538  
      33B2     5.432569    46B1     5.432753    27A2     5.433434  
      47B1     5.437187    55A1     5.438441    56A1    32.814627  
      57A1    33.139481    48B1    33.150044    58A1   110.558485  
      59A1   110.658031    49B1   110.669583  

    Final Occupation by Irrep:
             A1    A2    B1    B2 
    DOCC [    11,    4,    8,    5 ]
    SOCC [     0,    0,    1,    0 ]

  @DF-UKS Final Energy:  -440.13253775419946

   => Energetics <=

    Nuclear Repulsion Energy =            214.1970491241114303
    One-Electron Energy =               -1209.8570665128509063
    Two-Electron Energy =                 579.4987754940364084
    DFT Exchange-Correlation Energy =     -23.9711668494965942
    Empirical Dispersion Energy =          -0.0001290100000000
    VV10 Nonlocal Energy =                  0.0000000000000000
    Total Energy =                       -440.1325377541996318

  UHF NO Occupations:
  HONO-2 :    8 B1 1.9998606
  HONO-1 :   11 A1 1.9940039
  HONO-0 :    9 B1 1.0000000
  LUNO+0 :   12 A1 0.0059961
  LUNO+1 :   10 B1 0.0001394
  LUNO+2 :   13 A1 0.0001209
  LUNO+3 :    6 B2 0.0000937


Computation Completed


Properties will be evaluated at   0.000000,   0.000000,   0.000000 [a0]

Properties computed using the SCF density matrix

  Nuclear Dipole Moment: [e a0]
     X:     0.0000      Y:    -0.0000      Z:    -0.0000

  Electronic Dipole Moment: [e a0]
     X:     0.0000      Y:     0.0000      Z:     0.4064

  Dipole Moment: [e a0]
     X:     0.0000      Y:    -0.0000      Z:     0.4064     Total:     0.4064

  Dipole Moment: [D]
     X:     0.0000      Y:    -0.0000      Z:     1.0330     Total:     1.0330


*** tstop() called on bp1-compute00072.data.bp.acrc.priv at Fri Oct 29 08:41:03 2021
Module time:
	user time   =     286.88 seconds =       4.78 minutes
	system time =      11.74 seconds =       0.20 minutes
	total time  =         16 seconds =       0.27 minutes
Total time:
	user time   =    1692.97 seconds =      28.22 minutes
	system time =      53.12 seconds =       0.89 minutes
	total time  =        184 seconds =       3.07 minutes

*** tstart() called on bp1-compute00072.data.bp.acrc.priv
*** at Fri Oct 29 08:41:03 2021


         ------------------------------------------------------------
                                   SCF GRAD                          
                          Rob Parrish, Justin Turney,                
                       Andy Simmonett, and Alex Sokolov              
         ------------------------------------------------------------

  ==> Geometry <==

    Molecular point group: c2v
    Full point group: C2v

    Geometry (in Angstrom), charge = 0, multiplicity = 2:

       Center              X                  Y                   Z               Mass       
    ------------   -----------------  -----------------  -----------------  -----------------
         AG           0.000000000000    -0.000000000000     1.510546331724   106.905091600000
         AG           1.367710011457     0.000000000000    -0.755273165862   106.905091600000
         AG          -1.367710011457    -0.000000000000    -0.755273165862   106.905091600000

  Nuclear repulsion =  214.197049124111430

  ==> Basis Set <==

  Basis Set: DEF2-TZVPPD
    Blend: DEF2-TZVPPD
    Number of shells: 48
    Number of basis function: 168
    Number of Cartesian functions: 213
    Spherical Harmonics?: true
    Max angular momentum: 4

  Core potential: DEF2-TZVPPD
    Number of shells: 12
    Number of ECP primitives: 42
    Number of ECP core electrons: 84
    Max angular momentum: 3

  ==> DFJKGrad: Density-Fitted SCF Gradients <==

    Gradient:                    1
    J tasked:                  Yes
    K tasked:                  Yes
    wK tasked:                  No
    OpenMP threads:             24
    Integrals threads:          24
    Memory [MiB]:           102996
    Schwarz Cutoff:          0E+00
    Fitting Condition:       1E-10

   => Auxiliary Basis Set <=

  Basis Set: (DEF2-TZVPPD AUX)
    Blend: DEF2-TZVPP-JKFIT
    Number of shells: 147
    Number of basis function: 765
    Number of Cartesian functions: 1152
    Spherical Harmonics?: true
    Max angular momentum: 6

  ==> DFT Potential <==

   => Composite Functional: MN15-D3BJ <= 

   MN15 Hybrid Meta-GGA Exchange-Correlation Functional

    H. S. Yu, X. He, S. L. Li, and D. G. Truhlar, Chem. Sci. 7, 5032-5051, 2016


    Deriv               =              1
    GGA                 =           TRUE
    Meta                =           TRUE

    Exchange Hybrid     =           TRUE
    MP2 Hybrid          =          FALSE

   => Exchange Functionals <=

    1.0000   XC_HYB_MGGA_X_MN15

   => Exact (HF) Exchange <=

    0.4400               HF 

   => Correlation Functionals <=

    1.0000   XC_MGGA_C_MN15

   => Molecular Quadrature <=

    Radial Scheme          =       TREUTLER
    Pruning Scheme         =           FLAT
    Nuclear Scheme         =       TREUTLER

    BS radius alpha        =              1
    Pruning alpha          =              1
    Radial Points          =             75
    Spherical Points       =            302
    Total Points           =          67395
    Total Blocks           =            593
    Max Points             =            255
    Max Functions          =            166


  -Total Gradient:
     Atom            X                  Y                   Z
    ------   -----------------  -----------------  -----------------
       1        0.000000000000     0.000000000000    -0.166363318166
       2       -0.108503265238    -0.000000000000     0.083212510186
       3        0.108503265238     0.000000000000     0.083212510186


*** tstop() called on bp1-compute00072.data.bp.acrc.priv at Fri Oct 29 08:41:10 2021
Module time:
	user time   =      81.79 seconds =       1.36 minutes
	system time =       4.46 seconds =       0.07 minutes
	total time  =          7 seconds =       0.12 minutes
Total time:
	user time   =    1775.90 seconds =      29.60 minutes
	system time =      57.65 seconds =       0.96 minutes
	total time  =        191 seconds =       3.18 minutes


  ==> Adding ECP gradient terms (computed numerically) <==

  -ECP Gradient:
     Atom            X                  Y                   Z
    ------   -----------------  -----------------  -----------------
       1        0.000000000000    -0.000000000000     0.170096905556
       2        0.101724819578     0.000000000000    -0.085048452731
       3       -0.101724819578    -0.000000000000    -0.085048452731


  -Total Gradient:
     Atom            X                  Y                   Z
    ------   -----------------  -----------------  -----------------
       1        0.000000000000     0.000000000000     0.003733587391
       2       -0.006778445660    -0.000000000000    -0.001835942545
       3        0.006778445660     0.000000000000    -0.001835942545


			-----------------------------------------
			 OPTKING 2.0: for geometry optimizations 
			  - R.A. King,  Bethel University        
			-----------------------------------------
	At level 1: Red. Int., RFO, no backsteps, dynamic trust

	Previous internal coordinate definitions found.
	---Fragment 1 Geometry and Gradient---
	 AG          0.0000000000       -0.0000000000        2.8545188668
	 AG          2.5845973407        0.0000000000       -1.4272594334
	 AG         -2.5845973407       -0.0000000000       -1.4272594334
	             0.0000000000        0.0000000000        0.0037335874
	            -0.0067784457       -0.0000000000       -0.0018359425
	             0.0067784457        0.0000000000       -0.0018359425

	---Fragment 1 Intrafragment Coordinates---
	 - Coordinate -           - BOHR/RAD -       - ANG/DEG -
	 R(1,2)           =         5.001377	       2.646615
	 R(1,3)           =         5.001377	       2.646615
	 R(2,3)           =         5.169195	       2.735420
	 B(1,2,3)         =         1.027714	      58.883682
	 B(1,3,2)         =         1.027714	      58.883682
	 B(2,1,3)         =         1.086164	      62.232637

	Current energy   :      -440.1325377542

	Energy change for the previous step:
		Projected    :        -0.0040615560
		Actual       :        -0.0016827867

	Performing BFGS update.
	Previous computed or guess Hessian on step 1.
	Steps to be used in Hessian update: 1
	Taking RFO optimization step.
	Going to follow RFO solution 1.
	Using RFO vector 1.
	Norm of target step-size    0.21287
	Projected energy change by RFO approximation:        -0.0046073475

	Back-transformation to cartesian coordinates...
	Successfully converged to displaced geometry.

	--- Internal Coordinate Step in ANG or DEG, aJ/ANG or AJ/DEG ---
	 ---------------------------------------------------------------------------
	   Coordinate                Previous        Force       Change         New 
	   ----------                --------       ------       ------       ------
	    1 R(1,2)          =      2.646615    -0.014727    -0.020182     2.626433
	    2 R(1,3)          =      2.646615    -0.014727    -0.020182     2.626433
	    3 R(2,3)          =      2.735420     0.059005     0.102859     2.838279
	    4 B(1,2,3)        =     58.883682    -0.000080    -1.589755    57.293927
	    5 B(1,3,2)        =     58.883682    -0.000080    -1.589755    57.293927
	    6 B(2,1,3)        =     62.232637     0.000160     3.179509    65.412146
	 ---------------------------------------------------------------------------
	Successfully symmetrized geometry.

  ==> Convergence Check <==

  Measures of convergence in internal coordinates in au.
  Criteria marked as inactive (o), active & met (*), and active & unmet ( ).
  ---------------------------------------------------------------------------------------------
   Step     Total Energy     Delta E     MAX Force     RMS Force      MAX Disp      RMS Disp   
  ---------------------------------------------------------------------------------------------
    Convergence Criteria    1.00e-06 *    3.00e-04 *             o    1.20e-03 *             o
  ---------------------------------------------------------------------------------------------
      2    -440.13253775   -1.68e-03      7.16e-03      3.27e-03 o    1.94e-01      8.69e-02 o  ~
  ---------------------------------------------------------------------------------------------

	Writing optimization data to binary file.
	Structure for next step:
	Cartesian Geometry (in Angstrom)
	   AG     0.0000000000  -0.0000000000   1.4733475318
	   AG     1.4191392666   0.0000000000  -0.7366737659
	   AG    -1.4191392666  -0.0000000000  -0.7366737659
			--------------------------
			 OPTKING Finished Execution 
			--------------------------

    Structure for next step:
    Molecular point group: c2v
    Full point group: C2v

    Geometry (in Angstrom), charge = 0, multiplicity = 2:

    AG           0.000000000000    -0.000000000000     1.473347537547
    AG           1.419139272220     0.000000000000    -0.736673768773
    AG          -1.419139272220    -0.000000000000    -0.736673768773

gradient() will perform analytic gradient computation.

*** tstart() called on bp1-compute00072.data.bp.acrc.priv
*** at Fri Oct 29 08:43:28 2021

   => Loading Basis Set <=

    Name: DEF2-TZVPPD
    Role: ORBITAL
    Keyword: BASIS
    atoms 1-3 entry AG         line  2174 (ECP: line  3646) file /work/zw18965/.conda/envs/p4env/share/psi4/basis/def2-tzvppd.gbs 

    !!!  WARNING: ECP capability is in beta. Please check occupations closely.  !!!


         ---------------------------------------------------------
                                   SCF
               by Justin Turney, Rob Parrish, Andy Simmonett
                          and Daniel G. A. Smith
                              UKS Reference
                       24 Threads, 137329 MiB Core
         ---------------------------------------------------------

  ==> Geometry <==

    Molecular point group: c2v
    Full point group: C2v

    Geometry (in Angstrom), charge = 0, multiplicity = 2:

       Center              X                  Y                   Z               Mass       
    ------------   -----------------  -----------------  -----------------  -----------------
         AG           0.000000000000    -0.000000000000     1.473347537547   106.905091600000
         AG           1.419139272220     0.000000000000    -0.736673768773   106.905091600000
         AG          -1.419139272220    -0.000000000000    -0.736673768773   106.905091600000

  Running in c2v symmetry.

  Rotational constants: A =      0.04843  B =      0.03915  C =      0.02165 [cm^-1]
  Rotational constants: A =   1451.83462  B =   1173.65047  C =    649.00250 [MHz]
  Nuclear repulsion =  212.775446415837934

  Charge       = 0
  Multiplicity = 2
  Electrons    = 57
  Nalpha       = 29
  Nbeta        = 28

  ==> Algorithm <==

  SCF Algorithm Type is DF.
  DIIS enabled.
  MOM disabled.
  Fractional occupation disabled.
  Guess Type is READ.
  Energy threshold   = 1.00e-08
  Density threshold  = 1.00e-08
  Integral threshold = 0.00e+00

  ==> Primary Basis <==

  Basis Set: DEF2-TZVPPD
    Blend: DEF2-TZVPPD
    Number of shells: 48
    Number of basis function: 168
    Number of Cartesian functions: 213
    Spherical Harmonics?: true
    Max angular momentum: 4

  Core potential: DEF2-TZVPPD
    Number of shells: 12
    Number of ECP primitives: 42
    Number of ECP core electrons: 84
    Max angular momentum: 3

  ==> DFT Potential <==

   => Composite Functional: MN15-D3BJ <= 

   MN15 Hybrid Meta-GGA Exchange-Correlation Functional

    H. S. Yu, X. He, S. L. Li, and D. G. Truhlar, Chem. Sci. 7, 5032-5051, 2016


    Deriv               =              1
    GGA                 =           TRUE
    Meta                =           TRUE

    Exchange Hybrid     =           TRUE
    MP2 Hybrid          =          FALSE

   => Exchange Functionals <=

    1.0000   XC_HYB_MGGA_X_MN15

   => Exact (HF) Exchange <=

    0.4400               HF 

   => Correlation Functionals <=

    1.0000   XC_MGGA_C_MN15

   => Molecular Quadrature <=

    Radial Scheme          =       TREUTLER
    Pruning Scheme         =           FLAT
    Nuclear Scheme         =       TREUTLER

    BS radius alpha        =              1
    Pruning alpha          =              1
    Radial Points          =             75
    Spherical Points       =            302
    Total Points           =          67403
    Total Blocks           =            584
    Max Points             =            256
    Max Functions          =            165

   => MN15-D3(BJ): Empirical Dispersion <=

    Grimme's -D3 (BJ-damping) Dispersion Correction
    Grimme S.; Ehrlich S.; Goerigk L. (2011), J. Comput. Chem., 32: 1456
    Parametrisation from:    L. Goerigk, A. Hansen, C. Bauer, S. Ehrlich, A. Najibi, S. Grimme, Phys. Chem. Chem. Phys. 19, 32184-32215, 2017

        s6 =       1.000000
        s8 =       2.097100
        a1 =       0.786200
        a2 =       7.592300

   => Loading Basis Set <=

    Name: (DEF2-TZVPPD AUX)
    Role: JKFIT
    Keyword: DF_BASIS_SCF
    atoms 1-3 entry AG         line  4369 file /work/zw18965/.conda/envs/p4env/share/psi4/basis/def2-tzvpp-jkfit.gbs 

   => Loading Basis Set <=

    Name: DEF2-TZVPPD
    Role: ORBITAL
    Keyword: BASIS
    atoms 1-3 entry AG         line  2174 (ECP: line  3646) file /work/zw18965/.conda/envs/p4env/share/psi4/basis/def2-tzvppd.gbs 

    !!!  WARNING: ECP capability is in beta. Please check occupations closely.  !!!

  Reading orbitals from file 180, no projection.

  ==> Pre-Iterations <==

   -------------------------------------------------------
    Irrep   Nso     Nmo     Nalpha   Nbeta   Ndocc  Nsocc
   -------------------------------------------------------
     A1        59      59       0       0       0       0
     A2        27      27       0       0       0       0
     B1        49      49       0       0       0       0
     B2        33      33       0       0       0       0
   -------------------------------------------------------
    Total     168     168      29      28      28       1
   -------------------------------------------------------

  ==> Integral Setup <==

  DFHelper Memory: AOs need 0.176 GiB; user supplied 99.995 GiB. Using in-core AOs.

  ==> MemDFJK: Density-Fitted J/K Matrices <==

    J tasked:                   Yes
    K tasked:                   Yes
    wK tasked:                   No
    OpenMP threads:              24
    Memory [MiB]:            102394
    Algorithm:                 Core
    Schwarz Cutoff:           1E-12
    Mask sparsity (%):       1.5944
    Fitting Condition:        1E-10

   => Auxiliary Basis Set <=

  Basis Set: (DEF2-TZVPPD AUX)
    Blend: DEF2-TZVPP-JKFIT
    Number of shells: 147
    Number of basis function: 765
    Number of Cartesian functions: 1152
    Spherical Harmonics?: true
    Max angular momentum: 6

  Cached 100.0% of DFT collocation blocks in 0.588 [GiB].

  Minimum eigenvalue in the overlap matrix is 2.7111410961E-03.
  Using Symmetric Orthogonalization.

  SCF Guess: Orbitals guess was supplied from a previous computation.

  ==> Iterations <==

                           Total Energy        Delta E     RMS |[F,P]|

   @DF-UKS iter   0:  -440.13672804165265   -4.40137e+02   1.25496e-03 
   @DF-UKS iter   1:  -440.13366125802133    3.06678e-03   3.32580e-05 DIIS
   @DF-UKS iter   2:  -440.13366902740222   -7.76938e-06   1.84940e-05 DIIS
   @DF-UKS iter   3:  -440.13367017572511   -1.14832e-06   1.02782e-05 DIIS
   @DF-UKS iter   4:  -440.13367067349088   -4.97766e-07   2.77911e-06 DIIS
   @DF-UKS iter   5:  -440.13367081021818   -1.36727e-07   1.74448e-06 DIIS
   @DF-UKS iter   6:  -440.13367083836079   -2.81426e-08   5.78746e-07 DIIS
   @DF-UKS iter   7:  -440.13367085064817   -1.22874e-08   2.19454e-07 DIIS
   @DF-UKS iter   8:  -440.13367085255959   -1.91142e-09   1.47670e-07 DIIS
   @DF-UKS iter   9:  -440.13367085310881   -5.49221e-10   7.50651e-08 DIIS
   @DF-UKS iter  10:  -440.13367085321386   -1.05047e-10   3.46660e-08 DIIS
   @DF-UKS iter  11:  -440.13367085323273   -1.88720e-11   1.41234e-08 DIIS
   @DF-UKS iter  12:  -440.13367085323455   -1.81899e-12   3.94433e-09 DIIS
  Energy and wave function converged.


  ==> Post-Iterations <==

   @Spin Contamination Metric:   1.370258387E-02
   @S^2 Expected:                7.500000000E-01
   @S^2 Observed:                7.637025839E-01
   @S   Expected:                5.000000000E-01
   @S   Observed:                5.000000000E-01

    Orbital Energies [Eh]
    ---------------------

    Alpha Occupied:                                                       

       1A1    -3.663093     2A1    -3.644048     1B1    -3.643896  
       3A1    -2.315088     2B1    -2.312280     1B2    -2.312154  
       4A1    -2.295110     3B1    -2.293804     5A1    -2.293108  
       4B1    -2.292111     2B2    -2.291599     1A2    -2.291436  
       6A1    -0.424918     5B1    -0.417567     3B2    -0.407105  
       7A1    -0.402175     2A2    -0.395233     8A1    -0.387053  
       4B2    -0.377493     9A1    -0.364962     6B1    -0.363544  
      10A1    -0.362034     5B2    -0.361159     3A2    -0.360941  
       4A2    -0.357552     7B1    -0.356464     8B1    -0.341466  
      11A1    -0.285928     9B1    -0.173351  

    Alpha Virtual:                                                        

      12A1    -0.091094     6B2    -0.027728    13A1    -0.006519  
      10B1     0.007892    14A1     0.023466     5A2     0.048080  
       7B2     0.066219    11B1     0.100311    15A1     0.118053  
      12B1     0.118496    16A1     0.145730    17A1     0.194929  
      13B1     0.199926    18A1     0.205256     8B2     0.207849  
      14B1     0.217394    19A1     0.227793     6A2     0.263314  
       9B2     0.270272    15B1     0.330906    16B1     0.380212  
      20A1     0.387027    21A1     0.402297    10B2     0.418507  
       7A2     0.420529    11B2     0.440751    17B1     0.526021  
      22A1     0.528288     8A2     0.570523    23A1     0.594315  
       9A2     0.624628    12B2     0.628117    24A1     0.631489  
      18B1     0.636346    19B1     0.711319    25A1     0.716588  
      20B1     0.765432    21B1     1.448083    26A1     1.480003  
      27A1     1.522363    10A2     1.539815    13B2     1.542058  
      28A1     1.554576    22B1     1.565174    14B2     1.567949  
      15B2     1.577348    29A1     1.587922    11A2     1.594656  
      16B2     1.595330    23B1     1.596124    12A2     1.596927  
      17B2     1.607092    24B1     1.607422    25B1     1.618792  
      30A1     1.629465    13A2     1.638307    31A1     1.639807  
      18B2     1.641343    26B1     1.672106    32A1     1.690332  
      27B1     1.705179    33A1     1.725166    14A2     1.726763  
      19B2     1.735300    34A1     1.757576    28B1     1.759232  
      29B1     1.905522    35A1     1.944134    36A1     2.040521  
      15A2     2.045152    20B2     2.054297    30B1     2.081751  
      21B2     2.082681    37A1     2.084535    31B1     2.099395  
      16A2     2.099773    17A2     2.123997    22B2     2.125615  
      38A1     2.133460    32B1     2.160659    39A1     2.222260  
      33B1     2.249806    40A1     2.340583    41A1     2.476771  
      34B1     2.489801    42A1     4.562276    35B1     4.570622  
      18A2     4.576935    43A1     4.577771    23B2     4.577880  
      24B2     4.600893    36B1     4.601306    44A1     4.603277  
      25B2     4.612443    45A1     4.622858    26B2     4.623563  
      19A2     4.623901    37B1     4.626998    20A2     4.652963  
      38B1     4.664054    21A2     4.680743    27B2     4.692067  
      46A1     4.699700    39B1     4.776042    47A1     4.849034  
      40B1     4.863124    48A1     5.407852    28B2     5.408220  
      22A2     5.409605    29B2     5.410628    41B1     5.411376  
      49A1     5.412126    42B1     5.412644    23A2     5.412881  
      50A1     5.412947    24A2     5.428517    43B1     5.428538  
      51A1     5.428685    30B2     5.428897    44B1     5.429172  
      25A2     5.429285    52A1     5.429865    31B2     5.430380  
      32B2     5.430642    53A1     5.430775    26A2     5.431401  
      45B1     5.431703    54A1     5.432559    33B2     5.432612  
      46B1     5.432768    27A2     5.432865    47B1     5.435414  
      55A1     5.438455    56A1    32.803453    48B1    33.128121  
      57A1    33.132964    58A1   110.556413    59A1   110.656071  
      49B1   110.663038  

    Beta Occupied:                                                        

       1A1    -3.663099     2A1    -3.643232     1B1    -3.643079  
       3A1    -2.314657     2B1    -2.312134     1B2    -2.312077  
       4A1    -2.293620     3B1    -2.293512     5A1    -2.292738  
       2B2    -2.291361     1A2    -2.291165     4B1    -2.290296  
       6A1    -0.423585     5B1    -0.415643     3B2    -0.406617  
       7A1    -0.400516     2A2    -0.394497     8A1    -0.383970  
       4B2    -0.374976     9A1    -0.363640     6B1    -0.360662  
      10A1    -0.360137     5B2    -0.359550     3A2    -0.359254  
       4A2    -0.353712     7B1    -0.352591     8B1    -0.337583  
      11A1    -0.274038  

    Beta Virtual:                                                         

      12A1    -0.082710     9B1    -0.072060     6B2    -0.020382  
      13A1     0.025786    10B1     0.033540    14A1     0.040978  
       7B2     0.071835     5A2     0.077557    15A1     0.131319  
      11B1     0.136345    12B1     0.143215    16A1     0.152146  
      17A1     0.205099    18A1     0.213197     8B2     0.214170  
      13B1     0.220744    14B1     0.233692    19A1     0.239163  
       9B2     0.271246     6A2     0.273641    15B1     0.335463  
      16B1     0.381774    20A1     0.389277    21A1     0.400511  
      10B2     0.417044     7A2     0.422592    11B2     0.438589  
      22A1     0.527267    17B1     0.529367     8A2     0.568965  
      23A1     0.589359     9A2     0.621552    12B2     0.623884  
      24A1     0.628646    18B1     0.635981    19B1     0.707281  
      25A1     0.712512    20B1     0.763832    21B1     1.451129  
      26A1     1.481781    27A1     1.526141    10A2     1.542510  
      13B2     1.543952    28A1     1.561837    22B1     1.567196  
      14B2     1.571478    15B2     1.581597    29A1     1.593888  
      16B2     1.600799    11A2     1.601142    23B1     1.601423  
      12A2     1.603238    17B2     1.608185    24B1     1.613470  
      25B1     1.626303    30A1     1.632358    31A1     1.640966  
      13A2     1.641961    18B2     1.644508    26B1     1.675310  
      32A1     1.692836    27B1     1.709663    33A1     1.729623  
      14A2     1.730544    19B2     1.736672    28B1     1.762700  
      34A1     1.763919    29B1     1.908002    35A1     1.947820  
      36A1     2.044799    15A2     2.047439    20B2     2.059035  
      21B2     2.085468    37A1     2.087585    30B1     2.087810  
      16A2     2.104122    31B1     2.104346    22B2     2.127461  
      17A2     2.129390    38A1     2.137501    32B1     2.167420  
      39A1     2.223327    33B1     2.251129    40A1     2.340297  
      41A1     2.476075    34B1     2.492864    42A1     4.563625  
      35B1     4.572221    18A2     4.578029    23B2     4.578466  
      43A1     4.578663    24B2     4.601617    36B1     4.602071  
      44A1     4.606174    25B2     4.615141    45A1     4.625566  
      26B2     4.625999    19A2     4.626704    37B1     4.629590  
      20A2     4.656101    38B1     4.667072    21A2     4.682481  
      27B2     4.693598    46A1     4.701480    39B1     4.779720  
      47A1     4.850912    40B1     4.864689    48A1     5.407861  
      28B2     5.408101    22A2     5.409679    29B2     5.410618  
      41B1     5.411393    49A1     5.412060    23A2     5.412489  
      50A1     5.412758    42B1     5.412841    24A2     5.429337  
      30B2     5.429794    43B1     5.429813    25A2     5.430050  
      51A1     5.430217    44B1     5.430398    52A1     5.430466  
      31B2     5.431009    32B2     5.431788    53A1     5.431812  
      45B1     5.431997    26A2     5.432163    54A1     5.433332  
      46B1     5.433452    33B2     5.433502    27A2     5.434048  
      47B1     5.436834    55A1     5.439483    56A1    32.808811  
      57A1    33.134550    48B1    33.135715    58A1   110.558071  
      59A1   110.656712    49B1   110.665643  

    Final Occupation by Irrep:
             A1    A2    B1    B2 
    DOCC [    11,    4,    8,    5 ]
    SOCC [     0,    0,    1,    0 ]

  @DF-UKS Final Energy:  -440.13367085323455

   => Energetics <=

    Nuclear Repulsion Energy =            212.7754464158379335
    One-Electron Energy =               -1207.0705565497923999
    Two-Electron Energy =                 578.1320892314544153
    DFT Exchange-Correlation Energy =     -23.9705209507345032
    Empirical Dispersion Energy =          -0.0001290000000000
    VV10 Nonlocal Energy =                  0.0000000000000000
    Total Energy =                       -440.1336708532346051

  UHF NO Occupations:
  HONO-2 :    8 B1 1.9998688
  HONO-1 :   11 A1 1.9936996
  HONO-0 :    9 B1 1.0000000
  LUNO+0 :   12 A1 0.0063004
  LUNO+1 :   10 B1 0.0001312
  LUNO+2 :   13 A1 0.0001135
  LUNO+3 :    6 B2 0.0000888


Computation Completed


Properties will be evaluated at   0.000000,   0.000000,   0.000000 [a0]

Properties computed using the SCF density matrix

  Nuclear Dipole Moment: [e a0]
     X:     0.0000      Y:    -0.0000      Z:     0.0000

  Electronic Dipole Moment: [e a0]
     X:     0.0000      Y:     0.0000      Z:     0.3378

  Dipole Moment: [e a0]
     X:     0.0000      Y:    -0.0000      Z:     0.3378     Total:     0.3378

  Dipole Moment: [D]
     X:     0.0000      Y:    -0.0000      Z:     0.8585     Total:     0.8585


*** tstop() called on bp1-compute00072.data.bp.acrc.priv at Fri Oct 29 08:43:44 2021
Module time:
	user time   =     297.86 seconds =       4.96 minutes
	system time =      12.61 seconds =       0.21 minutes
	total time  =         16 seconds =       0.27 minutes
Total time:
	user time   =    2989.46 seconds =      49.82 minutes
	system time =      88.61 seconds =       1.48 minutes
	total time  =        345 seconds =       5.75 minutes

*** tstart() called on bp1-compute00072.data.bp.acrc.priv
*** at Fri Oct 29 08:43:44 2021


         ------------------------------------------------------------
                                   SCF GRAD                          
                          Rob Parrish, Justin Turney,                
                       Andy Simmonett, and Alex Sokolov              
         ------------------------------------------------------------

  ==> Geometry <==

    Molecular point group: c2v
    Full point group: C2v

    Geometry (in Angstrom), charge = 0, multiplicity = 2:

       Center              X                  Y                   Z               Mass       
    ------------   -----------------  -----------------  -----------------  -----------------
         AG           0.000000000000    -0.000000000000     1.473347537547   106.905091600000
         AG           1.419139272220     0.000000000000    -0.736673768773   106.905091600000
         AG          -1.419139272220    -0.000000000000    -0.736673768773   106.905091600000

  Nuclear repulsion =  212.775446415837934

  ==> Basis Set <==

  Basis Set: DEF2-TZVPPD
    Blend: DEF2-TZVPPD
    Number of shells: 48
    Number of basis function: 168
    Number of Cartesian functions: 213
    Spherical Harmonics?: true
    Max angular momentum: 4

  Core potential: DEF2-TZVPPD
    Number of shells: 12
    Number of ECP primitives: 42
    Number of ECP core electrons: 84
    Max angular momentum: 3

  ==> DFJKGrad: Density-Fitted SCF Gradients <==

    Gradient:                    1
    J tasked:                  Yes
    K tasked:                  Yes
    wK tasked:                  No
    OpenMP threads:             24
    Integrals threads:          24
    Memory [MiB]:           102996
    Schwarz Cutoff:          0E+00
    Fitting Condition:       1E-10

   => Auxiliary Basis Set <=

  Basis Set: (DEF2-TZVPPD AUX)
    Blend: DEF2-TZVPP-JKFIT
    Number of shells: 147
    Number of basis function: 765
    Number of Cartesian functions: 1152
    Spherical Harmonics?: true
    Max angular momentum: 6

  ==> DFT Potential <==

   => Composite Functional: MN15-D3BJ <= 

   MN15 Hybrid Meta-GGA Exchange-Correlation Functional

    H. S. Yu, X. He, S. L. Li, and D. G. Truhlar, Chem. Sci. 7, 5032-5051, 2016


    Deriv               =              1
    GGA                 =           TRUE
    Meta                =           TRUE

    Exchange Hybrid     =           TRUE
    MP2 Hybrid          =          FALSE

   => Exchange Functionals <=

    1.0000   XC_HYB_MGGA_X_MN15

   => Exact (HF) Exchange <=

    0.4400               HF 

   => Correlation Functionals <=

    1.0000   XC_MGGA_C_MN15

   => Molecular Quadrature <=

    Radial Scheme          =       TREUTLER
    Pruning Scheme         =           FLAT
    Nuclear Scheme         =       TREUTLER

    BS radius alpha        =              1
    Pruning alpha          =              1
    Radial Points          =             75
    Spherical Points       =            302
    Total Points           =          67403
    Total Blocks           =            584
    Max Points             =            256
    Max Functions          =            165


  -Total Gradient:
     Atom            X                  Y                   Z
    ------   -----------------  -----------------  -----------------
       1        0.000000000000     0.000000000000    -0.174030257646
       2       -0.095512368354    -0.000000000000     0.086990213150
       3        0.095512368354     0.000000000000     0.086990213150


*** tstop() called on bp1-compute00072.data.bp.acrc.priv at Fri Oct 29 08:43:51 2021
Module time:
	user time   =      84.41 seconds =       1.41 minutes
	system time =       4.62 seconds =       0.08 minutes
	total time  =          7 seconds =       0.12 minutes
Total time:
	user time   =    3075.22 seconds =      51.25 minutes
	system time =      93.30 seconds =       1.55 minutes
	total time  =        352 seconds =       5.87 minutes


  ==> Adding ECP gradient terms (computed numerically) <==

  -ECP Gradient:
     Atom            X                  Y                   Z
    ------   -----------------  -----------------  -----------------
       1        0.000000000000     0.000000000000     0.174596616300
       2        0.092738082920     0.000000000000    -0.087298308025
       3       -0.092738082920    -0.000000000000    -0.087298308025


  -Total Gradient:
     Atom            X                  Y                   Z
    ------   -----------------  -----------------  -----------------
       1        0.000000000000     0.000000000000     0.000566358653
       2       -0.002774285434    -0.000000000000    -0.000308094875
       3        0.002774285434     0.000000000000    -0.000308094875


			-----------------------------------------
			 OPTKING 2.0: for geometry optimizations 
			  - R.A. King,  Bethel University        
			-----------------------------------------
	At level 1: Red. Int., RFO, no backsteps, dynamic trust

	Previous internal coordinate definitions found.
	---Fragment 1 Geometry and Gradient---
	 AG          0.0000000000       -0.0000000000        2.7842233336
	 AG          2.6817845584        0.0000000000       -1.3921116668
	 AG         -2.6817845584       -0.0000000000       -1.3921116668
	             0.0000000000        0.0000000000        0.0005663587
	            -0.0027742854       -0.0000000000       -0.0003080949
	             0.0027742854        0.0000000000       -0.0003080949

	---Fragment 1 Intrafragment Coordinates---
	 - Coordinate -           - BOHR/RAD -       - ANG/DEG -
	 R(1,2)           =         4.963239	       2.626433
	 R(1,3)           =         4.963239	       2.626433
	 R(2,3)           =         5.363569	       2.838279
	 B(1,2,3)         =         0.999968	      57.293927
	 B(1,3,2)         =         0.999968	      57.293927
	 B(2,1,3)         =         1.141657	      65.412146

	Current energy   :      -440.1336708532

	Energy change for the previous step:
		Projected    :        -0.0046073475
		Actual       :        -0.0011330990
	Energy ratio indicates iffy step: Trust radius decreased to 1.250e-01.


	Performing BFGS update.
	Previous computed or guess Hessian on step 1.
	Steps to be used in Hessian update: 2 1
	Taking RFO optimization step.
	Going to follow RFO solution 1.
	Using RFO vector 1.
	Norm of target step-size    0.09754
	Projected energy change by RFO approximation:        -0.0008512760

	Back-transformation to cartesian coordinates...
	Successfully converged to displaced geometry.

	--- Internal Coordinate Step in ANG or DEG, aJ/ANG or AJ/DEG ---
	 ---------------------------------------------------------------------------
	   Coordinate                Previous        Force       Change         New 
	   ----------                --------       ------       ------       ------
	    1 R(1,2)          =      2.626433    -0.001730    -0.005161     2.621272
	    2 R(1,3)          =      2.626433    -0.001730    -0.005161     2.621272
	    3 R(2,3)          =      2.838279     0.022318     0.048537     2.886816
	    4 B(1,2,3)        =     57.293927    -0.000027    -0.705657    56.588271
	    5 B(1,3,2)        =     57.293927    -0.000027    -0.705657    56.588271
	    6 B(2,1,3)        =     65.412146     0.000053     1.411313    66.823459
	 ---------------------------------------------------------------------------
	Successfully symmetrized geometry.

  ==> Convergence Check <==

  Measures of convergence in internal coordinates in au.
  Criteria marked as inactive (o), active & met (*), and active & unmet ( ).
  ---------------------------------------------------------------------------------------------
   Step     Total Energy     Delta E     MAX Force     RMS Force      MAX Disp      RMS Disp   
  ---------------------------------------------------------------------------------------------
    Convergence Criteria    1.00e-06 *    3.00e-04 *             o    1.20e-03 *             o
  ---------------------------------------------------------------------------------------------
      3    -440.13367085   -1.13e-03      2.71e-03      1.17e-03 o    9.17e-02      3.98e-02 o  ~
  ---------------------------------------------------------------------------------------------

	Writing optimization data to binary file.
	Structure for next step:
	Cartesian Geometry (in Angstrom)
	   AG     0.0000000000   0.0000000000   1.4587121278
	   AG     1.4434079196   0.0000000000  -0.7293560639
[...]
      63Ap     1.901233    64Ap     1.942160    65Ap     2.041460  
      34App    2.046147    35App    2.053890    36App    2.080784  
      66Ap     2.082816    67Ap     2.085209    68Ap     2.097952  
      37App    2.100071    38App    2.124875    39App    2.126038  
      69Ap     2.143114    70Ap     2.143152    71Ap     2.222737  
      72Ap     2.255998    73Ap     2.329004    74Ap     2.461704  
      75Ap     2.479806    76Ap     4.566319    77Ap     4.571733  
      40App    4.576584    78Ap     4.579173    41App    4.579427  
      79Ap     4.600363    42App    4.602323    80Ap     4.611119  
      43App    4.618553    44App    4.623873    81Ap     4.624596  
      45App    4.625020    82Ap     4.626878    46App    4.644415  
      83Ap     4.656163    47App    4.682245    48App    4.693100  
      84Ap     4.705165    85Ap     4.745980    86Ap     4.850858  
      87Ap     4.868297    88Ap     5.409451    49App    5.409695  
      50App    5.411093    51App    5.412157    89Ap     5.412664  
      90Ap     5.413762    91Ap     5.413867    52App    5.414204  
      92Ap     5.414432    53App    5.429235    93Ap     5.429237  
      54App    5.429629    94Ap     5.429694    55App    5.429950  
      95Ap     5.430034    96Ap     5.430694    56App    5.430896  
      57App    5.431472    97Ap     5.431510    58App    5.431932  
      98Ap     5.432371    99Ap     5.433234    59App    5.433355  
     100Ap     5.433430    60App    5.433518   101Ap     5.435458  
     102Ap     5.438908   103Ap    32.795158   104Ap    33.107639  
     105Ap    33.125965   106Ap   110.554991   107Ap   110.654384  
     108Ap   110.657189  

    Beta Occupied:                                                        

       1Ap    -3.661740     2Ap    -3.642321     3Ap    -3.642229  
       4Ap    -2.313236     5Ap    -2.310840     1App   -2.310600  
       6Ap    -2.292746     7Ap    -2.292707     8Ap    -2.291435  
       2App   -2.290624     3App   -2.290489     9Ap    -2.289727  
      10Ap    -0.420620    11Ap    -0.415301     4App   -0.404794  
      12Ap    -0.399405     5App   -0.393867    13Ap    -0.379889  
       6App   -0.372249    14Ap    -0.361990    15Ap    -0.361392  
       7App   -0.358651     8App   -0.358392    16Ap    -0.358086  
       9App   -0.354738    17Ap    -0.353504    18Ap    -0.338129  
      19Ap    -0.272064  

    Beta Virtual:                                                         

      20Ap    -0.080394    21Ap    -0.074850    10App   -0.019715  
      22Ap     0.026573    23Ap     0.032678    24Ap     0.039929  
      11App    0.073403    12App    0.075220    25Ap     0.132497  
      26Ap     0.136579    27Ap     0.138672    28Ap     0.152353  
      29Ap     0.205705    30Ap     0.212123    13App    0.215053  
      31Ap     0.220554    32Ap     0.232754    33Ap     0.239614  
      14App    0.271484    15App    0.273478    34Ap     0.329419  
      35Ap     0.376359    36Ap     0.389567    37Ap     0.403574  
      16App    0.410846    17App    0.422489    18App    0.442171  
      38Ap     0.525818    39Ap     0.526304    19App    0.567210  
      40Ap     0.585557    20App    0.618225    21App    0.624659  
      41Ap     0.626853    42Ap     0.635586    43Ap     0.705181  
      44Ap     0.715811    45Ap     0.763181    46Ap     1.446084  
      47Ap     1.480904    48Ap     1.530551    22App    1.542110  
      23App    1.545666    49Ap     1.565719    24App    1.572711  
      50Ap     1.578348    25App    1.586167    51Ap     1.597236  
      26App    1.598639    52Ap     1.601529    27App    1.601955  
      28App    1.602195    53Ap     1.602537    29App    1.610671  
      54Ap     1.616772    55Ap     1.634893    30App    1.641356  
      56Ap     1.642741    31App    1.644728    57Ap     1.675724  
      58Ap     1.693162    59Ap     1.715728    32App    1.726272  
      60Ap     1.732087    33App    1.737053    61Ap     1.756614  
      62Ap     1.758792    63Ap     1.903716    64Ap     1.945879  
      65Ap     2.046196    34App    2.048710    35App    2.059052  
      36App    2.083570    66Ap     2.088092    67Ap     2.089243  
      68Ap     2.102561    37App    2.104482    38App    2.127842  
      39App    2.130308    69Ap     2.146831    70Ap     2.150217  
      71Ap     2.223902    72Ap     2.257361    73Ap     2.329309  
      74Ap     2.460849    75Ap     2.482978    76Ap     4.567607  
      77Ap     4.573376    40App    4.577711    78Ap     4.579979  
      41App    4.580002    79Ap     4.601191    42App    4.602929  
      80Ap     4.614095    43App    4.621423    44App    4.626742  
      81Ap     4.627393    45App    4.627473    82Ap     4.629609  
      46App    4.647657    83Ap     4.658989    47App    4.683854  
      48App    4.694674    84Ap     4.707025    85Ap     4.749593  
      86Ap     4.852797    87Ap     4.869886    88Ap     5.409451  
      49App    5.409564    50App    5.411169    51App    5.412159  
      89Ap     5.412722    90Ap     5.413576    52App    5.413799  
      91Ap     5.414051    92Ap     5.414363    53App    5.430049  
      54App    5.430380    93Ap     5.430486    55App    5.430726  
      94Ap     5.431034    95Ap     5.431178    96Ap     5.431383  
      56App    5.431716    97Ap     5.432518    57App    5.432578  
      58App    5.432829    98Ap     5.432852    99Ap     5.434116  
     100Ap     5.434144    59App    5.434309    60App    5.434644  
     101Ap     5.436866   102Ap     5.439954   103Ap    32.800905  
     104Ap    33.115477   105Ap    33.127310   106Ap   110.556792  
     107Ap   110.654925   108Ap   110.659892  

    Final Occupation by Irrep:
             Ap   App 
    DOCC [    19,    9 ]
    SOCC [     1,    0 ]

  @DF-UKS Final Energy:  -440.13395035578947

   => Energetics <=

    Nuclear Repulsion Energy =            210.6973263840070274
    One-Electron Energy =               -1202.9737596557608867
    Two-Electron Energy =                 576.1114552791070764
    DFT Exchange-Correlation Energy =     -23.9688433731427537
    Empirical Dispersion Energy =          -0.0001289900000000
    VV10 Nonlocal Energy =                  0.0000000000000000
    Total Energy =                       -440.1339503557895227

  UHF NO Occupations:
  HONO-2 :   18 Ap 1.9998772
  HONO-1 :   19 Ap 1.9933205
  HONO-0 :   20 Ap 1.0000000
  LUNO+0 :   21 Ap 0.0066795
  LUNO+1 :   22 Ap 0.0001228
  LUNO+2 :   23 Ap 0.0001058
  LUNO+3 :   10App 0.0000831


Computation Completed


Properties will be evaluated at   0.000000,   0.000000,   0.000000 [a0]

Properties computed using the SCF density matrix

  Nuclear Dipole Moment: [e a0]
     X:    -0.0000      Y:     0.0000      Z:    -0.0000

  Electronic Dipole Moment: [e a0]
     X:    -0.0006      Y:     0.0000      Z:     0.2837

  Dipole Moment: [e a0]
     X:    -0.0006      Y:     0.0000      Z:     0.2837     Total:     0.2837

  Dipole Moment: [D]
     X:    -0.0016      Y:     0.0000      Z:     0.7212     Total:     0.7212


*** tstop() called on bp1-compute00072.data.bp.acrc.priv at Fri Oct 29 09:18:56 2021
Module time:
	user time   =     425.62 seconds =       7.09 minutes
	system time =      17.02 seconds =       0.28 minutes
	total time  =         22 seconds =       0.37 minutes
Total time:
	user time   =   20257.53 seconds =     337.63 minutes
	system time =     564.61 seconds =       9.41 minutes
	total time  =       2457 seconds =      40.95 minutes

*** tstart() called on bp1-compute00072.data.bp.acrc.priv
*** at Fri Oct 29 09:18:56 2021


         ------------------------------------------------------------
                                   SCF GRAD                          
                          Rob Parrish, Justin Turney,                
                       Andy Simmonett, and Alex Sokolov              
         ------------------------------------------------------------

  ==> Geometry <==

    Molecular point group: cs
    Full point group: Cs

    Geometry (in Angstrom), charge = 0, multiplicity = 2:

       Center              X                  Y                   Z               Mass       
    ------------   -----------------  -----------------  -----------------  -----------------
         AG          -0.000158959721     0.000000000000     1.447716967194   106.905091600000
         AG           1.469770741906     0.000000000000    -0.723975920857   106.905091600000
         AG          -1.469611782185     0.000000000000    -0.723741046337   106.905091600000

  Nuclear repulsion =  210.697326384007027

  ==> Basis Set <==

  Basis Set: DEF2-TZVPPD
    Blend: DEF2-TZVPPD
    Number of shells: 48
    Number of basis function: 168
    Number of Cartesian functions: 213
    Spherical Harmonics?: true
    Max angular momentum: 4

  Core potential: DEF2-TZVPPD
    Number of shells: 12
    Number of ECP primitives: 42
    Number of ECP core electrons: 84
    Max angular momentum: 3

  ==> DFJKGrad: Density-Fitted SCF Gradients <==

    Gradient:                    1
    J tasked:                  Yes
    K tasked:                  Yes
    wK tasked:                  No
    OpenMP threads:             24
    Integrals threads:          24
    Memory [MiB]:           102996
    Schwarz Cutoff:          0E+00
    Fitting Condition:       1E-10

   => Auxiliary Basis Set <=

  Basis Set: (DEF2-TZVPPD AUX)
    Blend: DEF2-TZVPP-JKFIT
    Number of shells: 147
    Number of basis function: 765
    Number of Cartesian functions: 1152
    Spherical Harmonics?: true
    Max angular momentum: 6

  ==> DFT Potential <==

   => Composite Functional: MN15-D3BJ <= 

   MN15 Hybrid Meta-GGA Exchange-Correlation Functional

    H. S. Yu, X. He, S. L. Li, and D. G. Truhlar, Chem. Sci. 7, 5032-5051, 2016


    Deriv               =              1
    GGA                 =           TRUE
    Meta                =           TRUE

    Exchange Hybrid     =           TRUE
    MP2 Hybrid          =          FALSE

   => Exchange Functionals <=

    1.0000   XC_HYB_MGGA_X_MN15

   => Exact (HF) Exchange <=

    0.4400               HF 

   => Correlation Functionals <=

    1.0000   XC_MGGA_C_MN15

   => Molecular Quadrature <=

    Radial Scheme          =       TREUTLER
    Pruning Scheme         =           FLAT
    Nuclear Scheme         =       TREUTLER

    BS radius alpha        =              1
    Pruning alpha          =              1
    Radial Points          =             75
    Spherical Points       =            302
    Total Points           =          67407
    Total Blocks           =            591
    Max Points             =            255
    Max Functions          =            165


  -Total Gradient:
     Atom            X                  Y                   Z
    ------   -----------------  -----------------  -----------------
       1       -0.000091220430     0.000000000000    -0.173556758982
       2       -0.085085246971     0.000000000000     0.086644966411
       3        0.085176908242     0.000000000000     0.086796683488


*** tstop() called on bp1-compute00072.data.bp.acrc.priv at Fri Oct 29 09:19:03 2021
Module time:
	user time   =      82.00 seconds =       1.37 minutes
	system time =       4.33 seconds =       0.07 minutes
	total time  =          7 seconds =       0.12 minutes
Total time:
	user time   =   20341.18 seconds =     339.02 minutes
	system time =     569.06 seconds =       9.48 minutes
	total time  =       2464 seconds =      41.07 minutes


  ==> Adding ECP gradient terms (computed numerically) <==

  -ECP Gradient:
     Atom            X                  Y                   Z
    ------   -----------------  -----------------  -----------------
       1        0.000077281506     0.000000000000     0.173524620604
       2        0.085052122050     0.000000000000    -0.086697281757
       3       -0.085129403189     0.000000000000    -0.086827338232


  -Total Gradient:
     Atom            X                  Y                   Z
    ------   -----------------  -----------------  -----------------
       1       -0.000013938924     0.000000000000    -0.000032138378
       2       -0.000033124921     0.000000000000    -0.000052315346
       3        0.000047505053     0.000000000000    -0.000030654744


         ----------------------------------------------------------
                                   FINDIF
                     R. A. King and Jonathon Misiewicz
         ---------------------------------------------------------

  Computing second-derivative from gradients using projected, 
  symmetry-adapted, cartesian coordinates.

  6 gradients passed in, including the reference geometry.
  Generating complete list of displacements from unique ones.

    Operation 2 takes plus displacements of irrep B1 to minus ones.

-------------------------------------------------------------


  ==> Harmonic Vibrational Analysis <==

  non-mass-weighted Hessian:       Symmetric? True   Hermitian? True   Lin Dep Dim?  6 (0)
  projection of translations (True) and rotations (True) removed 6 degrees of freedom (6)
  total projector:                 Symmetric? True   Hermitian? True   Lin Dep Dim?  6 (6)
  mass-weighted Hessian:           Symmetric? True   Hermitian? True   Lin Dep Dim?  6 (0)
  pre-proj  low-frequency mode:    0.0000i [cm^-1]
  pre-proj  low-frequency mode:    0.0000i [cm^-1]
  pre-proj  low-frequency mode:    0.0000i [cm^-1]
  pre-proj  low-frequency mode:    0.0000i [cm^-1]
  pre-proj  low-frequency mode:    0.0000  [cm^-1]
  pre-proj  low-frequency mode:    0.0000  [cm^-1]
  pre-proj  low-frequency mode:   69.0989  [cm^-1]
  pre-proj  all modes:['0.0000i' '0.0000i' '0.0000i' '0.0000i' '0.0000' '0.0000' '69.0989'
 '108.5797' '181.9735']
  projected mass-weighted Hessian: Symmetric? True   Hermitian? True   Lin Dep Dim?  6 (6)
  post-proj low-frequency mode:    0.0000i [cm^-1] (TR)
  post-proj low-frequency mode:    0.0000i [cm^-1] (TR)
  post-proj low-frequency mode:    0.0000i [cm^-1] (TR)
  post-proj low-frequency mode:    0.0000i [cm^-1] (TR)
  post-proj low-frequency mode:    0.0000  [cm^-1] (TR)
  post-proj low-frequency mode:    0.0000  [cm^-1] (TR)
  post-proj low-frequency mode:   69.0989  [cm^-1] (V)
  post-proj  all modes:['0.0000i' '0.0000i' '0.0000i' '0.0000i' '0.0000' '0.0000' '69.0989'
 '108.5797' '181.9735']

  Vibration                       7                   8                   9           
  Freq [cm^-1]                 69.0989             108.5797            181.9735       
  Irrep                           A1                  B1                  A1          
  Reduced mass [u]             106.9051            106.9051            106.9051       
  Force const [mDyne/A]         0.3007              0.7426              2.0858        
  Turning point v=0 [a0]        0.1277              0.1018              0.0787        
  RMS dev v=0 [a0 u^1/2]        0.9334              0.7446              0.5752        
  Char temp [K]                99.4180             156.2221            261.8193       
  ----------------------------------------------------------------------------------
      1   AG               0.00  0.00 -0.36    0.62  0.00  0.00    0.00 -0.00  0.73   
      2   AG               0.64  0.00  0.18   -0.31  0.00  0.46    0.31 -0.00 -0.37   
      3   AG              -0.64 -0.00  0.18   -0.31 -0.00 -0.46   -0.31  0.00 -0.37   

  ==> Thermochemistry Components <==

  Entropy, S
    Electronic S            1.377 [cal/(mol K)]        5.763 [J/(mol K)]       0.00219507 [mEh/K] (multiplicity = 2)
    Translational S        43.192 [cal/(mol K)]      180.714 [J/(mol K)]       0.06883047 [mEh/K] (mol. weight = 320.7153 [u], P = 101325.00 [Pa])
    Rotational S           28.735 [cal/(mol K)]      120.227 [J/(mol K)]       0.04579211 [mEh/K] (symmetry no. = 2)
    Vibrational S           9.781 [cal/(mol K)]       40.924 [J/(mol K)]       0.01558713 [mEh/K]
  Total S                  83.085 [cal/(mol K)]      347.629 [J/(mol K)]       0.13240478 [mEh/K]
  Correction S              0.000 [cal/(mol K)]        0.000 [J/(mol K)]       0.00000000 [mEh/K]

  Constant volume heat capacity, Cv
    Electronic Cv           0.000 [cal/(mol K)]        0.000 [J/(mol K)]       0.00000000 [mEh/K]
    Translational Cv        2.981 [cal/(mol K)]       12.472 [J/(mol K)]       0.00475022 [mEh/K]
    Rotational Cv           2.981 [cal/(mol K)]       12.472 [J/(mol K)]       0.00475022 [mEh/K]
    Vibrational Cv          5.776 [cal/(mol K)]       24.165 [J/(mol K)]       0.00920389 [mEh/K]
  Total Cv                 11.737 [cal/(mol K)]       49.108 [J/(mol K)]       0.01870432 [mEh/K]
  Correction Cv             0.000 [cal/(mol K)]        0.000 [J/(mol K)]       0.00000000 [mEh/K]

  Constant pressure heat capacity, Cp
    Electronic Cp           0.000 [cal/(mol K)]        0.000 [J/(mol K)]       0.00000000 [mEh/K]
    Translational Cp        4.968 [cal/(mol K)]       20.786 [J/(mol K)]       0.00791703 [mEh/K]
    Rotational Cp           2.981 [cal/(mol K)]       12.472 [J/(mol K)]       0.00475022 [mEh/K]
    Vibrational Cp          5.776 [cal/(mol K)]       24.165 [J/(mol K)]       0.00920389 [mEh/K]
  Total Cp                 13.724 [cal/(mol K)]       57.423 [J/(mol K)]       0.02187113 [mEh/K]
  Correction Cp             0.000 [cal/(mol K)]        0.000 [J/(mol K)]       0.00000000 [mEh/K]

  ==> Thermochemistry Energy Analysis <==

  Raw electronic energy, E0
  Total E0, Electronic energy at well bottom at 0 [K]                 -440.13395037 [Eh]

  Zero-point energy, ZPE_vib = Sum_i nu_i / 2
    Electronic ZPE          0.000 [kcal/mol]        0.000 [kJ/mol]       0.00000000 [Eh]
    Translational ZPE       0.000 [kcal/mol]        0.000 [kJ/mol]       0.00000000 [Eh]
    Rotational ZPE          0.000 [kcal/mol]        0.000 [kJ/mol]       0.00000000 [Eh]
    Vibrational ZPE         0.514 [kcal/mol]        2.151 [kJ/mol]       0.00081935 [Eh]         179.826 [cm^-1]
  Correction ZPE            0.514 [kcal/mol]        2.151 [kJ/mol]       0.00081935 [Eh]         179.826 [cm^-1]
  Total ZPE, Electronic energy at 0 [K]                               -440.13313102 [Eh]

  Thermal Energy, E (includes ZPE)
    Electronic E            0.000 [kcal/mol]        0.000 [kJ/mol]       0.00000000 [Eh]
    Translational E         0.889 [kcal/mol]        3.718 [kJ/mol]       0.00141628 [Eh]
    Rotational E            0.889 [kcal/mol]        3.718 [kJ/mol]       0.00141628 [Eh]
    Vibrational E           1.834 [kcal/mol]        7.674 [kJ/mol]       0.00292270 [Eh]
  Correction E              3.611 [kcal/mol]       15.110 [kJ/mol]       0.00575525 [Eh]
  Total E, Electronic energy at  298.15 [K]                           -440.12819511 [Eh]

  Enthalpy, H_trans = E_trans + k_B * T
    Electronic H            0.000 [kcal/mol]        0.000 [kJ/mol]       0.00000000 [Eh]
    Translational H         1.481 [kcal/mol]        6.197 [kJ/mol]       0.00236046 [Eh]
    Rotational H            0.889 [kcal/mol]        3.718 [kJ/mol]       0.00141628 [Eh]
    Vibrational H           1.834 [kcal/mol]        7.674 [kJ/mol]       0.00292270 [Eh]
  Correction H              4.204 [kcal/mol]       17.589 [kJ/mol]       0.00669944 [Eh]
  Total H, Enthalpy at  298.15 [K]                                    -440.12725093 [Eh]

  Gibbs free energy, G = H - T * S
    Electronic G           -0.411 [kcal/mol]       -1.718 [kJ/mol]      -0.00065446 [Eh]
    Translational G       -11.396 [kcal/mol]      -47.683 [kJ/mol]      -0.01816134 [Eh]
    Rotational G           -7.679 [kcal/mol]      -32.127 [kJ/mol]      -0.01223664 [Eh]
    Vibrational G          -1.082 [kcal/mol]       -4.528 [kJ/mol]      -0.00172461 [Eh]
  Correction G            -20.568 [kcal/mol]      -86.056 [kJ/mol]      -0.03277705 [Eh]
  Total G, Free enthalpy at  298.15 [K]                               -440.16672741 [Eh]

    Psi4 stopped on: Friday, 29 October 2021 09:21AM
    Psi4 wall time for execution: 0:43:21.40

*** Psi4 exiting successfully. Buy a developer a beer!
