Optimizer: Optimization complete!
 6 displacements needed.
 1 2 3 4 5 6
Warning: used thermodynamics relations inappropriate for low-frequency modes: ['68.5019' '107.7734' '179.3045']
At level 1: Red. Int., RFO, no backsteps, dynamic trust
At level 1: Red. Int., RFO, no backsteps, dynamic trust
At level 1: Red. Int., RFO, no backsteps, dynamic trust
At level 1: Red. Int., RFO, no backsteps, dynamic trust
At level 1: Red. Int., RFO, no backsteps, dynamic trust
At level 1: Red. Int., RFO, no backsteps, dynamic trust
At level 1: Red. Int., RFO, no backsteps, dynamic trust
At level 1: Red. Int., RFO, no backsteps, dynamic trust
efer III, A. Yu. Sokolov,
    K. Patkowski, A. E. DePrince III, U. Bozkaya, R. A. King,
    F. A. Evangelista, J. M. Turney, T. D. Crawford, C. D. Sherrill,
    J. Chem. Phys. 152(18) 184108 (2020). https://doi.org/10.1063/5.0006002

                            Additional Code Authors
    E. T. Seidl, C. L. Janssen, E. F. Valeev, M. L. Leininger,
    J. F. Gonthier, R. M. Richard, H. R. McAlexander, M. Saitow, X. Wang,
    P. Verma, and M. H. Lechner

             Previous Authors, Complete List of Code Contributors,
                       and Citations for Specific Modules
    https://github.com/psi4/psi4/blob/master/codemeta.json
    https://github.com/psi4/psi4/graphs/contributors
    http://psicode.org/psi4manual/master/introduction.html#citing-psifour

    -----------------------------------------------------------------------


    Psi4 started on: Tuesday, 02 November 2021 10:58AM

    Process ID: 3268
    Host:       compute229.bc4.acrc.priv
    PSIDATADIR: /mnt/storage/home/zw18965/.conda/envs/p4env/share/psi4
    Memory:     500.0 MiB
    Threads:    28
    
  ==> Input File <==

--------------------------------------------------------------------------
memory 120 GB

molecule {
0 2
Ag       0.000000    1.533951   -0.000000 
Ag       1.328441   -0.766976    0.000000 
Ag      -1.328441   -0.766976   -0.000000 
 }

set reference uks
set dynamic_level 1
set basis Def2-TZVPPD

optimize("MN15-D3BJ")
frequencies("MN15-D3BJ")
--------------------------------------------------------------------------

  Memory set to 111.759 GiB by Python driver.

Scratch directory: /tmp/
gradient() will perform analytic gradient computation.

*** tstart() called on compute229.bc4.acrc.priv
*** at Tue Nov  2 10:58:49 2021

   => Loading Basis Set <=

    Name: DEF2-TZVPPD
    Role: ORBITAL
    Keyword: BASIS
    atoms 1-3 entry AG         line  2174 (ECP: line  3646) file /mnt/storage/home/zw18965/.conda/envs/p4env/share/psi4/basis/def2-tzvppd.gbs 

    !!!  WARNING: ECP capability is in beta. Please check occupations closely.  !!!

   => MN15-D3(BJ): Empirical Dispersion <=

    Grimme's -D3 (BJ-damping) Dispersion Correction
    Grimme S.; Ehrlich S.; Goerigk L. (2011), J. Comput. Chem., 32: 1456
    Parametrisation from:    L. Goerigk, A. Hansen, C. Bauer, S. Ehrlich, A. Najibi, S. Grimme, Phys. Chem. Chem. Phys. 19, 32184-32215, 2017

        s6 =       1.000000
        s8 =       2.097100
        a1 =       0.786200
        a2 =       7.592300


         ---------------------------------------------------------
                                   SCF
               by Justin Turney, Rob Parrish, Andy Simmonett
                          and Daniel G. A. Smith
                              UKS Reference
                       28 Threads, 114440 MiB Core
         ---------------------------------------------------------

  ==> Geometry <==

    Molecular point group: c2v
    Full point group: C2v

    Geometry (in Angstrom), charge = 0, multiplicity = 2:

       Center              X                  Y                   Z               Mass       
    ------------   -----------------  -----------------  -----------------  -----------------
         AG           0.000000000000    -0.000000000000     1.533951333333   106.905091600000
         AG           1.328441000000     0.000000000000    -0.766975666667   106.905091600000
         AG          -1.328441000000    -0.000000000000    -0.766975666667   106.905091600000

  Running in c2v symmetry.

  Rotational constants: A =      0.04468  B =      0.04468  C =      0.02234 [cm^-1]
  Rotational constants: A =   1339.38178  B =   1339.38143  C =    669.69080 [MHz]
  Nuclear repulsion =  215.703579372583732

  Charge       = 0
  Multiplicity = 2
  Electrons    = 57
  Nalpha       = 29
  Nbeta        = 28

  ==> Algorithm <==

  SCF Algorithm Type is DF.
  DIIS enabled.
  MOM disabled.
  Fractional occupation disabled.
  Guess Type is SAD.
  Energy threshold   = 1.00e-08
  Density threshold  = 1.00e-08
  Integral threshold = 1.00e-12

  ==> Primary Basis <==

  Basis Set: DEF2-TZVPPD
    Blend: DEF2-TZVPPD
    Number of shells: 48
    Number of basis functions: 168
    Number of Cartesian functions: 213
    Spherical Harmonics?: true
    Max angular momentum: 4

  Core potential: DEF2-TZVPPD
    Number of shells: 12
    Number of ECP primitives: 42
    Number of ECP core electrons: 84
    Max angular momentum: 3

  ==> DFT Potential <==

   => Composite Functional: MN15-D3BJ <= 

   MN15 Hybrid Meta-GGA Exchange-Correlation Functional

    H. S. Yu, X. He, S. L. Li, and D. G. Truhlar, Chem. Sci. 7, 5032-5051, 2016


    Deriv               =              1
    GGA                 =           TRUE
    Meta                =           TRUE

    Exchange Hybrid     =           TRUE
    MP2 Hybrid          =          FALSE

   => Exchange Functionals <=

    1.0000   XC_HYB_MGGA_X_MN15

   => Exact (HF) Exchange <=

    0.4400               HF 

   => Correlation Functionals <=

    1.0000   XC_MGGA_C_MN15

   => LibXC Density Thresholds  <==

    XC_MGGA_C_MN15:  1.00E-15 
    XC_HYB_MGGA_X_MN15:  1.00E-15 

   => Molecular Quadrature <=

    Radial Scheme          =       TREUTLER
    Pruning Scheme         =           NONE
    Nuclear Scheme         =       TREUTLER

    BS radius alpha        =              1
    Pruning alpha          =              1
    Radial Points          =             75
    Spherical Points       =            302
    Total Points           =          62882
    Total Blocks           =            592
    Max Points             =            256
    Max Functions          =            165
    Weights Tolerance      =       1.00E-15

   => Loading Basis Set <=

    Name: (DEF2-TZVPPD AUX)
    Role: JKFIT
    Keyword: DF_BASIS_SCF
    atoms 1-3 entry AG         line  4364 file /mnt/storage/home/zw18965/.conda/envs/p4env/share/psi4/basis/def2-universal-jkfit.gbs 

  ==> Integral Setup <==

  DFHelper Memory: AOs need 0.177 GiB; user supplied 83.305 GiB. Using in-core AOs.

  ==> MemDFJK: Density-Fitted J/K Matrices <==

    J tasked:                   Yes
    K tasked:                   Yes
    wK tasked:                   No
    OpenMP threads:              28
    Memory [MiB]:             85304
    Algorithm:                 Core
    Schwarz Cutoff:           1E-12
    Mask sparsity (%):       1.2472
    Fitting Condition:        1E-10

   => Auxiliary Basis Set <=

  Basis Set: (DEF2-TZVPPD AUX)
    Blend: DEF2-UNIVERSAL-JKFIT
    Number of shells: 147
    Number of basis functions: 765
    Number of Cartesian functions: 1152
    Spherical Harmonics?: true
    Max angular momentum: 6

  Cached 100.0% of DFT collocation blocks in 0.514 [GiB].

  Minimum eigenvalue in the overlap matrix is 2.4383033260E-03.
  Reciprocal condition number of the overlap matrix is 5.1180471977E-04.
    Using symmetric orthogonalization.

  ==> Pre-Iterations <==

  SCF Guess: Superposition of Atomic Densities via on-the-fly atomic UHF (no occupation information).

   -------------------------
    Irrep   Nso     Nmo    
   -------------------------
     A1        59      59 
     A2        27      27 
     B1        49      49 
     B2        33      33 
   -------------------------
    Total     168     168
   -------------------------

  ==> Iterations <==

                           Total Energy        Delta E     RMS |[F,P]|

   @DF-UKS iter SAD:  -439.43894371340809   -4.39439e+02   0.00000e+00 
   @DF-UKS iter   1:  -440.07064317122104   -6.31699e-01   4.94082e-03 DIIS
   @DF-UKS iter   2:  -440.05837850400644    1.22647e-02   5.84902e-03 DIIS
   @DF-UKS iter   3:  -440.13050957353755   -7.21311e-02   2.63553e-04 DIIS
   @DF-UKS iter   4:  -440.13079290067890   -2.83327e-04   1.38056e-04 DIIS
   @DF-UKS iter   5:  -440.13087157051905   -7.86698e-05   9.31643e-05 DIIS
   @DF-UKS iter   6:  -440.13091675551129   -4.51850e-05   1.97871e-05 DIIS
   @DF-UKS iter   7:  -440.13092386183564   -7.10632e-06   1.17457e-05 DIIS
   @DF-UKS iter   8:  -440.13092544681069   -1.58498e-06   4.56339e-06 DIIS
   @DF-UKS iter   9:  -440.13092569618891   -2.49378e-07   2.00073e-06 DIIS
   @DF-UKS iter  10:  -440.13092581222725   -1.16038e-07   8.86528e-07 DIIS
   @DF-UKS iter  11:  -440.13092584106278   -2.88355e-08   5.11543e-07 DIIS
   @DF-UKS iter  12:  -440.13092584870151   -7.63873e-09   2.09602e-07 DIIS
   @DF-UKS iter  13:  -440.13092585018489   -1.48339e-09   5.50573e-08 DIIS
   @DF-UKS iter  14:  -440.13092585027960   -9.47011e-11   2.23153e-08 DIIS
   @DF-UKS iter  15:  -440.13092585029074   -1.11413e-11   1.30378e-08 DIIS
   @DF-UKS iter  16:  -440.13092585029233   -1.59162e-12   6.55681e-09 DIIS
  Energy and wave function converged.


  ==> Post-Iterations <==

   Electrons on quadrature grid:
      Nalpha   =   28.9999892171 ; deviation = -1.078e-05
      Nbeta    =   27.9999901014 ; deviation = -9.899e-06
      Ntotal   =   56.9999793185 ; deviation = -2.068e-05 

   @Spin Contamination Metric:   1.268196635E-02
   @S^2 Expected:                7.500000000E-01
   @S^2 Observed:                7.626819664E-01
   @S   Expected:                5.000000000E-01
   @S   Observed:                5.000000000E-01

    Orbital Energies [Eh]
    ---------------------

    Alpha Occupied:                                                       

       1A1    -3.665571     2A1    -3.645843     1B1    -3.645441  
       3A1    -2.317437     1B2    -2.314926     2B1    -2.314640  
       4A1    -2.298426     3B1    -2.294977     5A1    -2.294760  
       4B1    -2.293164     2B2    -2.293030     1A2    -2.292643  
       6A1    -0.429245     5B1    -0.416416     3B2    -0.409707  
       7A1    -0.406542     2A2    -0.395931     8A1    -0.394310  
       4B2    -0.383855     9A1    -0.370163    10A1    -0.365635  
       5B2    -0.363939     3A2    -0.362365     6B1    -0.361493  
       4A2    -0.354510     7B1    -0.354404     8B1    -0.340169  
      11A1    -0.288097     9B1    -0.168696  

    Alpha Virtual:                                                        

      12A1    -0.095209     6B2    -0.028543    13A1    -0.004481  
      10B1     0.009237    14A1     0.019342     5A2     0.052047  
       7B2     0.062998    11B1     0.105943    15A1     0.116443  
      12B1     0.117218    16A1     0.145402    17A1     0.195287  
      13B1     0.200128    18A1     0.204772     8B2     0.206295  
      14B1     0.218288    19A1     0.224278     9B2     0.265376  
       6A2     0.268009    15B1     0.336721    20A1     0.386569  
      21A1     0.393809    16B1     0.396574     7A2     0.420121  
      10B2     0.424661    11B2     0.439835    22A1     0.527491  
      17B1     0.530604     8A2     0.572172    23A1     0.597138  
      12B2     0.624954     9A2     0.630628    18B1     0.635114  
      24A1     0.637216    25A1     0.711237    19B1     0.715230  
      20B1     0.767183    21B1     1.470749    26A1     1.472059  
      27A1     1.507531    28A1     1.517306    13B2     1.541844  
      10A2     1.544364    14B2     1.554169    22B1     1.568886  
      15B2     1.572232    29A1     1.579533    16B2     1.590920  
      23B1     1.595070    11A2     1.597480    17B2     1.598908  
      12A2     1.609065    30A1     1.621316    24B1     1.623692  
      31A1     1.633856    13A2     1.640072    18B2     1.640127  
      25B1     1.644408    32A1     1.683884    26B1     1.689085  
      27B1     1.692857    33A1     1.720404    19B2     1.730932  
      14A2     1.737685    28B1     1.764404    34A1     1.766453  
      29B1     1.909222    35A1     1.948356    36A1     2.038049  
      15A2     2.044239    20B2     2.053119    37A1     2.079459  
      21B2     2.079953    30B1     2.082818    16A2     2.099696  
      31B1     2.107840    38A1     2.108230    22B2     2.120333  
      17A2     2.127766    39A1     2.208559    32B1     2.213623  
      33B1     2.238252    40A1     2.344099    41A1     2.495493  
      34B1     2.501149    42A1     4.556009    35B1     4.570971  
      43A1     4.571680    23B2     4.577772    18A2     4.581117  
      24B2     4.590034    44A1     4.593785    25B2     4.601340  
      36B1     4.602642    45A1     4.616136    26B2     4.619345  
      19A2     4.625408    37B1     4.627230    20A2     4.663174  
      46A1     4.679958    27B2     4.684124    38B1     4.689465  
      21A2     4.689891    47A1     4.835301    39B1     4.836041  
      40B1     4.853035    48A1     5.405280    28B2     5.405598  
      22A2     5.406909    29B2     5.407880    49A1     5.408690  
      41B1     5.408725    50A1     5.410098    23A2     5.410177  
      42B1     5.410258    51A1     5.426101    43B1     5.427204  
      24A2     5.427231    30B2     5.427318    44B1     5.427511  
      25A2     5.428007    52A1     5.428344    31B2     5.428522  
      53A1     5.429431    32B2     5.429544    26A2     5.430503  
      45B1     5.430609    33B2     5.431090    54A1     5.431213  
      46B1     5.431381    27A2     5.431534    55A1     5.436415  
      47B1     5.436720    56A1    32.816418    57A1    33.144375  
      48B1    33.153996    58A1   110.557887    59A1   110.659192  
      49B1   110.670083  

    Beta Occupied:                                                        

       1A1    -3.665586     2A1    -3.645059     1B1    -3.644655  
       3A1    -2.317055     1B2    -2.314868     2B1    -2.314511  
       4A1    -2.296397     5A1    -2.294895     3B1    -2.294842  
       2B2    -2.292823     1A2    -2.292404     4B1    -2.291117  
       6A1    -0.427873     5B1    -0.414673     3B2    -0.409242  
       7A1    -0.404108     2A2    -0.395324     8A1    -0.391955  
       4B2    -0.381568     9A1    -0.368665    10A1    -0.364298  
       5B2    -0.362484     3A2    -0.360743     6B1    -0.358924  
       7B1    -0.350583     4A2    -0.350558     8B1    -0.335985  
      11A1    -0.276926  

    Beta Virtual:                                                         

      12A1    -0.087750     9B1    -0.066749     6B2    -0.021462  
      13A1     0.022314    10B1     0.034738    14A1     0.044513  
       7B2     0.068179     5A2     0.082083    15A1     0.128295  
      11B1     0.135429    12B1     0.151427    16A1     0.151762  
      17A1     0.203199     8B2     0.213022    18A1     0.213767  
      13B1     0.220794    14B1     0.235444    19A1     0.239531  
       9B2     0.266438     6A2     0.278324    15B1     0.340086  
      20A1     0.388823    21A1     0.392307    16B1     0.398891  
       7A2     0.421605    10B2     0.424335    11B2     0.436199  
      22A1     0.525901    17B1     0.534027     8A2     0.570420  
      23A1     0.592266    12B2     0.620492     9A2     0.627386  
      24A1     0.634751    18B1     0.635001    25A1     0.707015  
      19B1     0.711430    20B1     0.765495    21B1     1.473556  
      26A1     1.475185    27A1     1.512650    28A1     1.521659  
      13B2     1.543736    10A2     1.546692    14B2     1.561177  
      22B1     1.570135    15B2     1.573250    29A1     1.584571  
      16B2     1.596434    17B2     1.599550    23B1     1.599581  
      11A2     1.603235    12A2     1.614310    30A1     1.624023  
      24B1     1.629125    31A1     1.635026    18B2     1.642108  
      13A2     1.644538    25B1     1.651014    32A1     1.686101  
      26B1     1.693822    27B1     1.698690    33A1     1.724748  
      19B2     1.732235    14A2     1.741295    28B1     1.766974  
      34A1     1.772636    29B1     1.912155    35A1     1.951915  
      36A1     2.041689    15A2     2.045902    20B2     2.058158  
      21B2     2.082292    37A1     2.082995    30B1     2.088817  
      16A2     2.103607    31B1     2.112714    38A1     2.112939  
      22B2     2.121917    17A2     2.133351    39A1     2.209476  
      32B1     2.217296    33B1     2.241276    40A1     2.343260  
      41A1     2.494981    34B1     2.504150    42A1     4.557594  
      35B1     4.572470    43A1     4.573127    23B2     4.578370  
      18A2     4.582112    24B2     4.592628    44A1     4.596132  
      25B2     4.602067    36B1     4.603246    45A1     4.618606  
      26B2     4.621708    19A2     4.628090    37B1     4.629725  
      20A2     4.665023    46A1     4.681520    27B2     4.685556  
      38B1     4.692749    21A2     4.693008    47A1     4.837025  
      39B1     4.837950    40B1     4.856435    48A1     5.405288  
      28B2     5.405503    22A2     5.406964    29B2     5.407847  
      41B1     5.408703    49A1     5.408750    50A1     5.409788  
      23A2     5.409831    42B1     5.410442    51A1     5.427671  
      24A2     5.428066    30B2     5.428504    43B1     5.428535  
      44B1     5.428652    25A2     5.428781    52A1     5.429160  
      31B2     5.429797    32B2     5.429988    53A1     5.430497  
      45B1     5.430659    26A2     5.430946    33B2     5.431627  
      54A1     5.431757    46B1     5.432064    27A2     5.432819  
      55A1     5.437382    47B1     5.438198    56A1    32.820814  
      57A1    33.146592    48B1    33.161128    58A1   110.559202  
      59A1   110.660075    49B1   110.672507  

    Final Occupation by Irrep:
             A1    A2    B1    B2 
    DOCC [    11,    4,    8,    5 ]
    SOCC [     0,    0,    1,    0 ]

  @DF-UKS Final Energy:  -440.13092585029233

   => Energetics <=

    Nuclear Repulsion Energy =            215.7035793725837323
    One-Electron Energy =               -1212.8127379573525104
    Two-Electron Energy =                 580.9514059321920740
    DFT Exchange-Correlation Energy =     -23.9730441877156579
    Empirical Dispersion Energy =          -0.0001290100000000
    VV10 Nonlocal Energy =                  0.0000000000000000
    Total Energy =                       -440.1309258502924422

  UHF NO Occupations:
  HONO-2 :    8 B1 1.9998525
  HONO-1 :   11 A1 1.9942621
  HONO-0 :    9 B1 1.0000000
  LUNO+0 :   12 A1 0.0057379
  LUNO+1 :   10 B1 0.0001475
  LUNO+2 :   13 A1 0.0001260
  LUNO+3 :    6 B2 0.0000966


Computation Completed


Properties will be evaluated at   0.000000,   0.000000,   0.000000 [a0]

Properties computed using the SCF density matrix

  Nuclear Dipole Moment: [e a0]
     X:    -0.0000      Y:    -0.0000      Z:     0.0000

  Electronic Dipole Moment: [e a0]
     X:     0.0000      Y:     0.0000      Z:     0.4549

  Dipole Moment: [e a0]
     X:    -0.0000      Y:    -0.0000      Z:     0.4549     Total:     0.4549

  Dipole Moment: [D]
     X:    -0.0000      Y:    -0.0000      Z:     1.1561     Total:     1.1561


*** tstop() called on compute229.bc4.acrc.priv at Tue Nov  2 10:59:14 2021
Module time:
	user time   =     476.31 seconds =       7.94 minutes
	system time =      17.82 seconds =       0.30 minutes
	total time  =         25 seconds =       0.42 minutes
Total time:
	user time   =     476.31 seconds =       7.94 minutes
	system time =      17.82 seconds =       0.30 minutes
	total time  =         25 seconds =       0.42 minutes

*** tstart() called on compute229.bc4.acrc.priv
*** at Tue Nov  2 10:59:14 2021


         ------------------------------------------------------------
                                   SCF GRAD                          
                          Rob Parrish, Justin Turney,                
                       Andy Simmonett, and Alex Sokolov              
         ------------------------------------------------------------

  ==> Geometry <==

    Molecular point group: c2v
    Full point group: C2v

    Geometry (in Angstrom), charge = 0, multiplicity = 2:

       Center              X                  Y                   Z               Mass       
    ------------   -----------------  -----------------  -----------------  -----------------
         AG           0.000000000000    -0.000000000000     1.533951333333   106.905091600000
         AG           1.328441000000     0.000000000000    -0.766975666667   106.905091600000
         AG          -1.328441000000    -0.000000000000    -0.766975666667   106.905091600000

  Nuclear repulsion =  215.703579372583732

  ==> Basis Set <==

  Basis Set: DEF2-TZVPPD
    Blend: DEF2-TZVPPD
    Number of shells: 48
    Number of basis functions: 168
    Number of Cartesian functions: 213
    Spherical Harmonics?: true
    Max angular momentum: 4

  Core potential: DEF2-TZVPPD
    Number of shells: 12
    Number of ECP primitives: 42
    Number of ECP core electrons: 84
    Max angular momentum: 3

  ==> DFJKGrad: Density-Fitted SCF Gradients <==

    Gradient:                    1
    J tasked:                  Yes
    K tasked:                  Yes
    wK tasked:                  No
    OpenMP threads:             28
    Integrals threads:          28
    Memory [MiB]:            85830
    Schwarz Cutoff:          1E-12
    Fitting Condition:       1E-10

   => Auxiliary Basis Set <=

  Basis Set: (DEF2-TZVPPD AUX)
    Blend: DEF2-UNIVERSAL-JKFIT
    Number of shells: 147
    Number of basis functions: 765
    Number of Cartesian functions: 1152
    Spherical Harmonics?: true
    Max angular momentum: 6

  ==> DFT Potential <==

   => Composite Functional: MN15-D3BJ <= 

   MN15 Hybrid Meta-GGA Exchange-Correlation Functional

    H. S. Yu, X. He, S. L. Li, and D. G. Truhlar, Chem. Sci. 7, 5032-5051, 2016


    Deriv               =              1
    GGA                 =           TRUE
    Meta                =           TRUE

    Exchange Hybrid     =           TRUE
    MP2 Hybrid          =          FALSE

   => Exchange Functionals <=

    1.0000   XC_HYB_MGGA_X_MN15

   => Exact (HF) Exchange <=

    0.4400               HF 

   => Correlation Functionals <=

    1.0000   XC_MGGA_C_MN15

   => LibXC Density Thresholds  <==

    XC_MGGA_C_MN15:  1.00E-15 
    XC_HYB_MGGA_X_MN15:  1.00E-15 

   => Molecular Quadrature <=

    Radial Scheme          =       TREUTLER
    Pruning Scheme         =           NONE
    Nuclear Scheme         =       TREUTLER

    BS radius alpha        =              1
    Pruning alpha          =              1
    Radial Points          =             75
    Spherical Points       =            302
    Total Points           =          62882
    Total Blocks           =            592
    Max Points             =            256
    Max Functions          =            165
    Weights Tolerance      =       1.00E-15


  -Total Gradient:
     Atom            X                  Y                   Z
    ------   -----------------  -----------------  -----------------
       1        0.000000000000     0.000000000000    -0.162963387667
       2       -0.124274692864    -0.000000000000     0.081533931859
       3        0.124274692864     0.000000000000     0.081533931859


*** tstop() called on compute229.bc4.acrc.priv at Tue Nov  2 10:59:25 2021
Module time:
	user time   =      99.27 seconds =       1.65 minutes
	system time =       3.38 seconds =       0.06 minutes
	total time  =         11 seconds =       0.18 minutes
Total time:
	user time   =     577.45 seconds =       9.62 minutes
	system time =      21.28 seconds =       0.35 minutes
	total time  =         36 seconds =       0.60 minutes


  ==> Adding ECP gradient terms (computed numerically) <==

  -ECP Gradient:
     Atom            X                  Y                   Z
    ------   -----------------  -----------------  -----------------
       1        0.000000000000     0.000000000000     0.168286520127
       2        0.112096960609     0.000000000000    -0.084143259963
       3       -0.112096960609    -0.000000000000    -0.084143259963


  -Total Gradient:
     Atom            X                  Y                   Z
    ------   -----------------  -----------------  -----------------
       1        0.000000000000     0.000000000000     0.005323132459
       2       -0.012177732256    -0.000000000000    -0.002609328104
       3        0.012177732256     0.000000000000    -0.002609328104


			-----------------------------------------
			 OPTKING 2.0: for geometry optimizations 
			  - R.A. King,  Bethel University        
			-----------------------------------------
	At level 1: Red. Int., RFO, no backsteps, dynamic trust

	Internal coordinates to be generated automatically.
	Detected frag 1 with atoms:  1 2 3
	---Fragment 1 Bond Connectivity---
	 1 : 2 3
	 2 : 1 3
	 3 : 1 2

	---Fragment 1 Geometry and Gradient---
	 AG          0.0000000000       -0.0000000000        2.8987479098
	 AG          2.5103896638        0.0000000000       -1.4493739549
	 AG         -2.5103896638       -0.0000000000       -1.4493739549
	             0.0000000000        0.0000000000        0.0053231325
	            -0.0121777323       -0.0000000000       -0.0026093281
	             0.0121777323        0.0000000000       -0.0026093281

	Previous optimization step data not found.  Starting new optimization.

	---Fragment 1 Intrafragment Coordinates---
	 - Coordinate -           - BOHR/RAD -       - ANG/DEG -
	 R(1,2)           =         5.020779	       2.656882
	 R(1,3)           =         5.020779	       2.656882
	 R(2,3)           =         5.020779	       2.656882
	 B(1,2,3)         =         1.047197	      59.999997
	 B(1,3,2)         =         1.047197	      59.999997
	 B(2,1,3)         =         1.047198	      60.000007

	Current energy   :      -440.1309258503

	Generating empirical Hessian (Schlegel '84) for each fragment.
	Taking RFO optimization step.
	Going to follow RFO solution 1.
	Using RFO vector 1.
	Norm of target step-size    0.15854
	Projected energy change by RFO approximation:        -0.0001355607

	Back-transformation to cartesian coordinates...
	Successfully converged to displaced geometry.

	--- Internal Coordinate Step in ANG or DEG, aJ/ANG or AJ/DEG ---
	 ---------------------------------------------------------------------------
	   Coordinate                Previous        Force       Change         New 
	   ----------                --------       ------       ------       ------
	    1 R(1,2)          =      2.656882    -0.020260    -0.010389     2.646493
	    2 R(1,3)          =      2.656882    -0.020260    -0.010389     2.646493
	    3 R(2,3)          =      2.656882     0.103118     0.078622     2.735504
	    4 B(1,2,3)        =     59.999997    -0.000131    -1.118970    58.881027
	    5 B(1,3,2)        =     59.999997    -0.000131    -1.118970    58.881027
	    6 B(2,1,3)        =     60.000007     0.000262     2.237939    62.237946
	 ---------------------------------------------------------------------------
	Successfully symmetrized geometry.

  ==> Convergence Check <==

  Measures of convergence in internal coordinates in au.
  Criteria marked as inactive (o), active & met (*), and active & unmet ( ).
  --------------------------------------------------------------------------------------------- ~
   Step     Total Energy     Delta E     MAX Force     RMS Force      MAX Disp      RMS Disp    ~
  --------------------------------------------------------------------------------------------- ~
    Convergence Criteria    1.00e-06 *    3.00e-04 *             o    1.20e-03 *             o  ~
  --------------------------------------------------------------------------------------------- ~
      1    -440.13092585   -4.40e+02      1.25e-02      5.58e-03 o    1.49e-01      6.47e-02 o  ~
  ---------------------------------------------------------------------------------------------

	Writing optimization data to binary file.
	Structure for next step:
	Cartesian Geometry (in Angstrom)
	   AG     0.0000000000   0.0000000000   1.5104345553
	   AG     1.3677520358   0.0000000000  -0.7552172777
	   AG    -1.3677520358  -0.0000000000  -0.7552172777
			--------------------------
			 OPTKING Finished Execution 
			--------------------------

    Structure for next step:
    Molecular point group: c2v
    Full point group: C2v

    Geometry (in Angstrom), charge = 0, multiplicity = 2:

    AG           0.000000000000    -0.000000000000     1.510434561256
    AG           1.367752041184     0.000000000000    -0.755217280628
    AG          -1.367752041184    -0.000000000000    -0.755217280628


Scratch directory: /tmp/
gradient() will perform analytic gradient computation.

*** tstart() called on compute229.bc4.acrc.priv
*** at Tue Nov  2 11:02:30 2021

   => Loading Basis Set <=

    Name: DEF2-TZVPPD
    Role: ORBITAL
    Keyword: BASIS
    atoms 1-3 entry AG         line  2174 (ECP: line  3646) file /mnt/storage/home/zw18965/.conda/envs/p4env/share/psi4/basis/def2-tzvppd.gbs 

    !!!  WARNING: ECP capability is in beta. Please check occupations closely.  !!!

   => MN15-D3(BJ): Empirical Dispersion <=

    Grimme's -D3 (BJ-damping) Dispersion Correction
    Grimme S.; Ehrlich S.; Goerigk L. (2011), J. Comput. Chem., 32: 1456
    Parametrisation from:    L. Goerigk, A. Hansen, C. Bauer, S. Ehrlich, A. Najibi, S. Grimme, Phys. Chem. Chem. Phys. 19, 32184-32215, 2017

        s6 =       1.000000
        s8 =       2.097100
        a1 =       0.786200
        a2 =       7.592300


         ---------------------------------------------------------
                                   SCF
               by Justin Turney, Rob Parrish, Andy Simmonett
                          and Daniel G. A. Smith
                              UKS Reference
                       28 Threads, 114440 MiB Core
         ---------------------------------------------------------

  ==> Geometry <==

    Molecular point group: c2v
    Full point group: C2v

    Geometry (in Angstrom), charge = 0, multiplicity = 2:

       Center              X                  Y                   Z               Mass       
    ------------   -----------------  -----------------  -----------------  -----------------
         AG           0.000000000000    -0.000000000000     1.510434561256   106.905091600000
         AG           1.367752041184     0.000000000000    -0.755217280628   106.905091600000
         AG          -1.367752041184    -0.000000000000    -0.755217280628   106.905091600000

  Running in c2v symmetry.

  Rotational constants: A =      0.04608  B =      0.04215  C =      0.02201 [cm^-1]
  Rotational constants: A =   1381.41358  B =   1263.49658  C =    659.91328 [MHz]
  Nuclear repulsion =  214.201547597741865

  Charge       = 0
  Multiplicity = 2
  Electrons    = 57
  Nalpha       = 29
  Nbeta        = 28

  ==> Algorithm <==

  SCF Algorithm Type is DF.
  DIIS enabled.
  MOM disabled.
  Fractional occupation disabled.
  Guess Type is READ.
  Energy threshold   = 1.00e-08
  Density threshold  = 1.00e-08
  Integral threshold = 1.00e-12

  ==> Primary Basis <==

  Basis Set: DEF2-TZVPPD
    Blend: DEF2-TZVPPD
    Number of shells: 48
    Number of basis functions: 168
    Number of Cartesian functions: 213
    Spherical Harmonics?: true
    Max angular momentum: 4

  Core potential: DEF2-TZVPPD
    Number of shells: 12
    Number of ECP primitives: 42
    Number of ECP core electrons: 84
    Max angular momentum: 3

  ==> DFT Potential <==

   => Composite Functional: MN15-D3BJ <= 

   MN15 Hybrid Meta-GGA Exchange-Correlation Functional

    H. S. Yu, X. He, S. L. Li, and D. G. Truhlar, Chem. Sci. 7, 5032-5051, 2016


    Deriv               =              1
    GGA                 =           TRUE
    Meta                =           TRUE

    Exchange Hybrid     =           TRUE
    MP2 Hybrid          =          FALSE

   => Exchange Functionals <=

    1.0000   XC_HYB_MGGA_X_MN15

   => Exact (HF) Exchange <=

    0.4400               HF 

   => Correlation Functionals <=

    1.0000   XC_MGGA_C_MN15

   => LibXC Density Thresholds  <==

    XC_MGGA_C_MN15:  1.00E-15 
    XC_HYB_MGGA_X_MN15:  1.00E-15 

   => Molecular Quadrature <=

    Radial Scheme          =       TREUTLER
    Pruning Scheme         =           NONE
    Nuclear Scheme         =       TREUTLER

    BS radius alpha        =              1
    Pruning alpha          =              1
    Radial Points          =             75
    Spherical Points       =            302
    Total Points           =          62870
    Total Blocks           =            586
    Max Points             =            254
    Max Functions          =            166
    Weights Tolerance      =       1.00E-15

   => Loading Basis Set <=

    Name: (DEF2-TZVPPD AUX)
    Role: JKFIT
    Keyword: DF_BASIS_SCF
    atoms 1-3 entry AG         line  4364 file /mnt/storage/home/zw18965/.conda/envs/p4env/share/psi4/basis/def2-universal-jkfit.gbs 

   => Loading Basis Set <=

    Name: DEF2-TZVPPD
    Role: ORBITAL
    Keyword: BASIS
    atoms 1-3 entry AG         line  2174 (ECP: line  3646) file /mnt/storage/home/zw18965/.conda/envs/p4env/share/psi4/basis/def2-tzvppd.gbs 

    !!!  WARNING: ECP capability is in beta. Please check occupations closely.  !!!

  Reading orbitals from file /tmp/Ag03N0_D3H.default.3268.180.npy, no projection.

  ==> Integral Setup <==

  DFHelper Memory: AOs need 0.177 GiB; user supplied 83.307 GiB. Using in-core AOs.

  ==> MemDFJK: Density-Fitted J/K Matrices <==

    J tasked:                   Yes
    K tasked:                   Yes
    wK tasked:                   No
    OpenMP threads:              28
    Memory [MiB]:             85306
    Algorithm:                 Core
    Schwarz Cutoff:           1E-12
    Mask sparsity (%):       1.3889
    Fitting Condition:        1E-10

   => Auxiliary Basis Set <=

  Basis Set: (DEF2-TZVPPD AUX)
    Blend: DEF2-UNIVERSAL-JKFIT
    Number of shells: 147
    Number of basis functions: 765
    Number of Cartesian functions: 1152
    Spherical Harmonics?: true
    Max angular momentum: 6

  Cached 100.0% of DFT collocation blocks in 0.512 [GiB].

  Minimum eigenvalue in the overlap matrix is 2.3776102099E-03.
  Reciprocal condition number of the overlap matrix is 4.9955396146E-04.
    Using symmetric orthogonalization.

  ==> Pre-Iterations <==

  SCF Guess: Orbitals guess was supplied from a previous computation.

   -------------------------------------------------------
    Irrep   Nso     Nmo     Nalpha   Nbeta   Ndocc  Nsocc
   -------------------------------------------------------
     A1        59      59      11      11      11       0
     A2        27      27       4       4       4       0
     B1        49      49       9       8       8       1
     B2        33      33       5       5       5       0
   -------------------------------------------------------
    Total     168     168      29      28      28       1
   -------------------------------------------------------

  ==> Iterations <==

                           Total Energy        Delta E     RMS |[F,P]|

   @DF-UKS iter   0:  -440.13597056682750   -4.40136e+02   1.06232e-03 
   @DF-UKS iter   1:  -440.13260088933350    3.36968e-03   4.26990e-05 DIIS
   @DF-UKS iter   2:  -440.13260284571447   -1.95638e-06   5.22326e-05 DIIS
   @DF-UKS iter   3:  -440.13260861118090   -5.76547e-06   6.56383e-06 DIIS
   @DF-UKS iter   4:  -440.13260893046777   -3.19287e-07   4.43236e-06 DIIS
   @DF-UKS iter   5:  -440.13260904756680   -1.17099e-07   1.73097e-06 DIIS
   @DF-UKS iter   6:  -440.13260909400094   -4.64341e-08   8.28614e-07 DIIS
   @DF-UKS iter   7:  -440.13260910407644   -1.00755e-08   4.18162e-07 DIIS
   @DF-UKS iter   8:  -440.13260910877136   -4.69493e-09   1.51279e-07 DIIS
   @DF-UKS iter   9:  -440.13260910973031   -9.58948e-10   7.54178e-08 DIIS
   @DF-UKS iter  10:  -440.13260910999156   -2.61252e-10   2.54192e-08 DIIS
   @DF-UKS iter  11:  -440.13260911001362   -2.20552e-11   7.84124e-09 DIIS
  Energy and wave function converged.


  ==> Post-Iterations <==

   Electrons on quadrature grid:
      Nalpha   =   28.9999857678 ; deviation = -1.423e-05
      Nbeta    =   27.9999866249 ; deviation = -1.338e-05
      Ntotal   =   56.9999723926 ; deviation = -2.761e-05 

   @Spin Contamination Metric:   1.315237716E-02
   @S^2 Expected:                7.500000000E-01
   @S^2 Observed:                7.631523772E-01
   @S   Expected:                5.000000000E-01
   @S   Observed:                5.000000000E-01

    Orbital Energies [Eh]
    ---------------------

    Alpha Occupied:                                                       

       1A1    -3.664470     2A1    -3.644933     1B1    -3.644667  
       3A1    -2.316360     1B2    -2.313709     2B1    -2.313573  
       4A1    -2.296711     3B1    -2.294367     5A1    -2.293936  
       4B1    -2.292660     2B2    -2.292291     1A2    -2.292023  
       6A1    -0.427010     5B1    -0.416665     3B2    -0.408329  
       7A1    -0.403766     2A2    -0.395471     8A1    -0.391326  
       4B2    -0.380766     9A1    -0.367656    10A1    -0.364173  
       5B2    -0.362699     6B1    -0.362337     3A2    -0.361758  
       4A2    -0.355968     7B1    -0.355299     8B1    -0.341047  
      11A1    -0.287050     9B1    -0.170678  

    Alpha Virtual:                                                        

      12A1    -0.093521     6B2    -0.028156    13A1    -0.005384  
      10B1     0.008617    14A1     0.020946     5A2     0.050288  
       7B2     0.064279    11B1     0.103590    15A1     0.117050  
      12B1     0.117547    16A1     0.145500    17A1     0.195239  
      13B1     0.200151    18A1     0.204987     8B2     0.206985  
      14B1     0.217856    19A1     0.225711     6A2     0.265887  
       9B2     0.267354    15B1     0.334979    20A1     0.386303  
      16B1     0.387752    21A1     0.396805     7A2     0.420178  
      10B2     0.423772    11B2     0.437802    22A1     0.527825  
      17B1     0.528802     8A2     0.571477    23A1     0.596414  
      12B2     0.626375     9A2     0.628051    24A1     0.634138  
      18B1     0.635402    25A1     0.713037    19B1     0.713466  
      20B1     0.765826    21B1     1.462291    26A1     1.483051  
      27A1     1.519993    28A1     1.528520    13B2     1.542503  
      10A2     1.542950    14B2     1.562911    22B1     1.567706  
      15B2     1.573915    29A1     1.583626    16B2     1.593158  
      23B1     1.595516    11A2     1.596297    17B2     1.602114  
      12A2     1.603069    24B1     1.615928    30A1     1.624391  
      25B1     1.635276    31A1     1.636572    13A2     1.637626  
      18B2     1.640808    26B1     1.677701    32A1     1.685920  
      27B1     1.695216    33A1     1.722666    14A2     1.731935  
      19B2     1.732590    28B1     1.761678    34A1     1.762590  
      29B1     1.907582    35A1     1.944815    36A1     2.039716  
      15A2     2.044905    20B2     2.054541    30B1     2.082350  
      37A1     2.082477    21B2     2.082691    16A2     2.099533  
      31B1     2.104379    38A1     2.120471    22B2     2.122908  
      17A2     2.124950    32B1     2.189569    39A1     2.213875  
      33B1     2.236643    40A1     2.344365    41A1     2.488773  
      34B1     2.496216    42A1     4.559943    35B1     4.570729  
      43A1     4.574914    23B2     4.578337    18A2     4.579802  
      44A1     4.596970    24B2     4.598165    36B1     4.602460  
      25B2     4.604484    45A1     4.619702    26B2     4.621478  
      19A2     4.624565    37B1     4.626956    20A2     4.661285  
      38B1     4.676280    21A2     4.680714    27B2     4.687197  
      46A1     4.687972    39B1     4.812745    47A1     4.840238  
      40B1     4.850282    48A1     5.406400    28B2     5.406783  
      22A2     5.408103    29B2     5.409070    41B1     5.409925  
      49A1     5.410164    42B1     5.411276    50A1     5.411335  
      23A2     5.411381    51A1     5.427427    24A2     5.427917  
      43B1     5.427933    30B2     5.428185    44B1     5.428261  
      25A2     5.428699    52A1     5.429100    31B2     5.429663  
      32B2     5.430025    53A1     5.430104    26A2     5.430968  
      45B1     5.431088    33B2     5.431835    54A1     5.431902  
      46B1     5.432078    27A2     5.432194    47B1     5.435724  
      55A1     5.437435    56A1    32.809957    57A1    33.137698  
      48B1    33.142846    58A1   110.557053    59A1   110.657282  
      49B1   110.667106  

    Beta Occupied:                                                        

       1A1    -3.664482     2A1    -3.644134     1B1    -3.643866  
       3A1    -2.315958     1B2    -2.313644     2B1    -2.313438  
       4A1    -2.294783     3B1    -2.294163     5A1    -2.293981  
       2B2    -2.292069     1A2    -2.291770     4B1    -2.290713  
       6A1    -0.425671     5B1    -0.414850     3B2    -0.407865  
       7A1    -0.401807     2A2    -0.394820     8A1    -0.388520  
       4B2    -0.378365     9A1    -0.366173    10A1    -0.362638  
       5B2    -0.361171     3A2    -0.360116     6B1    -0.359603  
       4A2    -0.352046     7B1    -0.351487     8B1    -0.336987  
      11A1    -0.275579  

    Beta Virtual:                                                         

      12A1    -0.085695     9B1    -0.069021     6B2    -0.020961  
      13A1     0.023875    10B1     0.034150    14A1     0.042739  
       7B2     0.069635     5A2     0.080092    15A1     0.129485  
      11B1     0.135665    12B1     0.147910    16A1     0.151883  
      17A1     0.204023     8B2     0.213530    18A1     0.213843  
      13B1     0.220852    14B1     0.234674    19A1     0.239097  
       9B2     0.268385     6A2     0.276228    15B1     0.338766  
      20A1     0.388870    16B1     0.389828    21A1     0.394871  
       7A2     0.421896    10B2     0.423164    11B2     0.434570  
      22A1     0.526437    17B1     0.532197     8A2     0.569800  
      23A1     0.591498    12B2     0.622019     9A2     0.624868  
      24A1     0.631481    18B1     0.635164    25A1     0.708880  
      19B1     0.709558    20B1     0.764138    21B1     1.465212  
      26A1     1.484820    27A1     1.524561    28A1     1.534953  
      13B2     1.544384    10A2     1.545432    14B2     1.568829  
      22B1     1.569236    15B2     1.575906    29A1     1.589078  
      16B2     1.598647    23B1     1.600264    11A2     1.602307  
      17B2     1.603042    12A2     1.608990    24B1     1.621444  
      30A1     1.627168    31A1     1.637806    13A2     1.641615  
      25B1     1.643261    18B2     1.643302    26B1     1.681796  
      32A1     1.688275    27B1     1.699769    33A1     1.727069  
      19B2     1.733957    14A2     1.735601    28B1     1.764593  
      34A1     1.768883    29B1     1.910262    35A1     1.948423  
      36A1     2.043556    15A2     2.046804    20B2     2.059310  
      21B2     2.085217    37A1     2.085696    30B1     2.088459  
      16A2     2.103662    31B1     2.109237    22B2     2.124690  
      38A1     2.124958    17A2     2.130479    32B1     2.195554  
      39A1     2.214874    33B1     2.238074    40A1     2.343661  
      41A1     2.488197    34B1     2.499220    42A1     4.561390  
      35B1     4.572273    43A1     4.576103    23B2     4.578922  
      18A2     4.580841    44A1     4.599580    24B2     4.599638  
      36B1     4.603118    25B2     4.606364    45A1     4.622296  
      26B2     4.623895    19A2     4.627306    37B1     4.629476  
      20A2     4.663736    38B1     4.679477    21A2     4.683186  
      27B2     4.688682    46A1     4.689634    39B1     4.816372  
      47A1     4.842037    40B1     4.851923    48A1     5.406410  
      28B2     5.406679    22A2     5.408166    29B2     5.409045  
      41B1     5.409913    49A1     5.410204    23A2     5.411014  
      50A1     5.411040    42B1     5.411470    24A2     5.428743  
      51A1     5.428979    43B1     5.429226    30B2     5.429259  
      25A2     5.429476    44B1     5.429507    52A1     5.429821  
      31B2     5.430444    32B2     5.430934    53A1     5.431164  
      45B1     5.431214    26A2     5.431560    54A1     5.432539  
      33B2     5.432569    46B1     5.432753    27A2     5.433434  
      47B1     5.437189    55A1     5.438442    56A1    32.814783  
      57A1    33.139638    48B1    33.150194    58A1   110.558517  
      59A1   110.658063    49B1   110.669613  

    Final Occupation by Irrep:
             A1    A2    B1    B2 
    DOCC [    11,    4,    8,    5 ]
    SOCC [     0,    0,    1,    0 ]

  @DF-UKS Final Energy:  -440.13260911001362

   => Energetics <=

    Nuclear Repulsion Energy =            214.2015475977418646
    One-Electron Energy =               -1209.8659825619765797
    Two-Electron Energy =                 579.5031959176906184
    DFT Exchange-Correlation Energy =     -23.9712410534696652
    Empirical Dispersion Energy =          -0.0001290100000000
    VV10 Nonlocal Energy =                  0.0000000000000000
    Total Energy =                       -440.1326091100137887

  UHF NO Occupations:
  HONO-2 :    8 B1 1.9998606
  HONO-1 :   11 A1 1.9940041
  HONO-0 :    9 B1 1.0000000
  LUNO+0 :   12 A1 0.0059959
  LUNO+1 :   10 B1 0.0001394
  LUNO+2 :   13 A1 0.0001209
  LUNO+3 :    6 B2 0.0000937


Computation Completed


Properties will be evaluated at   0.000000,   0.000000,   0.000000 [a0]

Properties computed using the SCF density matrix

  Nuclear Dipole Moment: [e a0]
     X:    -0.0000      Y:    -0.0000      Z:    -0.0000

  Electronic Dipole Moment: [e a0]
     X:     0.0000      Y:     0.0000      Z:     0.4063

  Dipole Moment: [e a0]
     X:    -0.0000      Y:    -0.0000      Z:     0.4063     Total:     0.4063

  Dipole Moment: [D]
     X:    -0.0000      Y:    -0.0000      Z:     1.0326     Total:     1.0326


*** tstop() called on compute229.bc4.acrc.priv at Tue Nov  2 11:02:47 2021
Module time:
	user time   =     353.68 seconds =       5.89 minutes
	system time =      10.87 seconds =       0.18 minutes
	total time  =         17 seconds =       0.28 minutes
Total time:
	user time   =    2042.47 seconds =      34.04 minutes
	system time =      41.20 seconds =       0.69 minutes
	total time  =        238 seconds =       3.97 minutes

*** tstart() called on compute229.bc4.acrc.priv
*** at Tue Nov  2 11:02:47 2021


         ------------------------------------------------------------
                                   SCF GRAD                          
                          Rob Parrish, Justin Turney,                
                       Andy Simmonett, and Alex Sokolov              
         ------------------------------------------------------------

  ==> Geometry <==

    Molecular point group: c2v
    Full point group: C2v

    Geometry (in Angstrom), charge = 0, multiplicity = 2:

       Center              X                  Y                   Z               Mass       
    ------------   -----------------  -----------------  -----------------  -----------------
         AG           0.000000000000    -0.000000000000     1.510434561256   106.905091600000
         AG           1.367752041184     0.000000000000    -0.755217280628   106.905091600000
         AG          -1.367752041184    -0.000000000000    -0.755217280628   106.905091600000

  Nuclear repulsion =  214.201547597741865

  ==> Basis Set <==

  Basis Set: DEF2-TZVPPD
    Blend: DEF2-TZVPPD
    Number of shells: 48
    Number of basis functions: 168
    Number of Cartesian functions: 213
    Spherical Harmonics?: true
    Max angular momentum: 4

  Core potential: DEF2-TZVPPD
    Number of shells: 12
    Number of ECP primitives: 42
    Number of ECP core electrons: 84
    Max angular momentum: 3

  ==> DFJKGrad: Density-Fitted SCF Gradients <==

    Gradient:                    1
    J tasked:                  Yes
    K tasked:                  Yes
    wK tasked:                  No
    OpenMP threads:             28
    Integrals threads:          28
    Memory [MiB]:            85830
    Schwarz Cutoff:          1E-12
    Fitting Condition:       1E-10

   => Auxiliary Basis Set <=

  Basis Set: (DEF2-TZVPPD AUX)
    Blend: DEF2-UNIVERSAL-JKFIT
    Number of shells: 147
    Number of basis functions: 765
    Number of Cartesian functions: 1152
    Spherical Harmonics?: true
    Max angular momentum: 6

  ==> DFT Potential <==

   => Composite Functional: MN15-D3BJ <= 

   MN15 Hybrid Meta-GGA Exchange-Correlation Functional

    H. S. Yu, X. He, S. L. Li, and D. G. Truhlar, Chem. Sci. 7, 5032-5051, 2016


    Deriv               =              1
    GGA                 =           TRUE
    Meta                =           TRUE

    Exchange Hybrid     =           TRUE
    MP2 Hybrid          =          FALSE

   => Exchange Functionals <=

    1.0000   XC_HYB_MGGA_X_MN15

   => Exact (HF) Exchange <=

    0.4400               HF 

   => Correlation Functionals <=

    1.0000   XC_MGGA_C_MN15

   => LibXC Density Thresholds  <==

    XC_MGGA_C_MN15:  1.00E-15 
    XC_HYB_MGGA_X_MN15:  1.00E-15 

   => Molecular Quadrature <=

    Radial Scheme          =       TREUTLER
    Pruning Scheme         =           NONE
    Nuclear Scheme         =       TREUTLER

    BS radius alpha        =              1
    Pruning alpha          =              1
    Radial Points          =             75
    Spherical Points       =            302
    Total Points           =          62870
    Total Blocks           =            586
    Max Points             =            254
    Max Functions          =            166
    Weights Tolerance      =       1.00E-15


  -Total Gradient:
     Atom            X                  Y                   Z
    ------   -----------------  -----------------  -----------------
       1        0.000000000000     0.000000000000    -0.166464286196
       2       -0.108508591354    -0.000000000000     0.083270901831
       3        0.108508591354     0.000000000000     0.083270901831


*** tstop() called on compute229.bc4.acrc.priv at Tue Nov  2 11:02:59 2021
Module time:
	user time   =      98.49 seconds =       1.64 minutes
	system time =       3.06 seconds =       0.05 minutes
	total time  =         12 seconds =       0.20 minutes
Total time:
	user time   =    2143.72 seconds =      35.73 minutes
	system time =      44.41 seconds =       0.74 minutes
	total time  =        250 seconds =       4.17 minutes


  ==> Adding ECP gradient terms (computed numerically) <==

  -ECP Gradient:
     Atom            X                  Y                   Z
    ------   -----------------  -----------------  -----------------
       1        0.000000000000    -0.000000000000     0.170149215168
       2        0.101738265611     0.000000000000    -0.085074607454
       3       -0.101738265611    -0.000000000000    -0.085074607454


  -Total Gradient:
     Atom            X                  Y                   Z
    ------   -----------------  -----------------  -----------------
       1        0.000000000000     0.000000000000     0.003684928972
       2       -0.006770325743    -0.000000000000    -0.001803705622
       3        0.006770325743     0.000000000000    -0.001803705622


			-----------------------------------------
			 OPTKING 2.0: for geometry optimizations 
			  - R.A. King,  Bethel University        
			-----------------------------------------
	At level 1: Red. Int., RFO, no backsteps, dynamic trust

	Previous internal coordinate definitions found.
	---Fragment 1 Geometry and Gradient---
	 AG          0.0000000000       -0.0000000000        2.8543076512
	 AG          2.5846767654        0.0000000000       -1.4271538256
	 AG         -2.5846767654       -0.0000000000       -1.4271538256
	             0.0000000000        0.0000000000        0.0036849290
	            -0.0067703257       -0.0000000000       -0.0018037056
	             0.0067703257        0.0000000000       -0.0018037056

	---Fragment 1 Intrafragment Coordinates---
	 - Coordinate -           - BOHR/RAD -       - ANG/DEG -
	 R(1,2)           =         5.001147	       2.646493
	 R(1,3)           =         5.001147	       2.646493
	 R(2,3)           =         5.169354	       2.735504
	 B(1,2,3)         =         1.027668	      58.881027
	 B(1,3,2)         =         1.027668	      58.881027
	 B(2,1,3)         =         1.086257	      62.237946

	Current energy   :      -440.1326091100

	Energy change for the previous step:
		Projected    :        -0.0001355607
		Actual       :        -0.0016832597
	Energy ratio indicates good step: Trust radius increased to 1.000e+00.


	Performing BFGS update.
	Previous computed or guess Hessian on step 1.
	Steps to be used in Hessian update: 1
	Taking RFO optimization step.
	Going to follow RFO solution 1.
	Using RFO vector 1.
	Norm of target step-size    0.21036
	Projected energy change by RFO approximation:        -0.0045166213

	Back-transformation to cartesian coordinates...
	Successfully converged to displaced geometry.

	--- Internal Coordinate Step in ANG or DEG, aJ/ANG or AJ/DEG ---
	 ---------------------------------------------------------------------------
	   Coordinate                Previous        Force       Change         New 
	   ----------                --------       ------       ------       ------
	    1 R(1,2)          =      2.646493    -0.014485    -0.019570     2.626923
	    2 R(1,3)          =      2.646493    -0.014485    -0.019570     2.626923
	    3 R(2,3)          =      2.735504     0.058838     0.101819     2.837323
	    4 B(1,2,3)        =     58.881027    -0.000080    -1.567849    57.313178
	    5 B(1,3,2)        =     58.881027    -0.000080    -1.567849    57.313178
	    6 B(2,1,3)        =     62.237946     0.000159     3.135698    65.373644
	 ---------------------------------------------------------------------------
	Successfully symmetrized geometry.

  ==> Convergence Check <==

  Measures of convergence in internal coordinates in au.
  Criteria marked as inactive (o), active & met (*), and active & unmet ( ).
  ---------------------------------------------------------------------------------------------
   Step     Total Energy     Delta E     MAX Force     RMS Force      MAX Disp      RMS Disp   
  ---------------------------------------------------------------------------------------------
    Convergence Criteria    1.00e-06 *    3.00e-04 *             o    1.20e-03 *             o
  ---------------------------------------------------------------------------------------------
      2    -440.13260911   -1.68e-03      7.14e-03      3.26e-03 o    1.92e-01      8.59e-02 o  ~
  ---------------------------------------------------------------------------------------------

	Writing optimization data to binary file.
	Structure for next step:
	Cartesian Geometry (in Angstrom)
	   AG     0.0000000000  -0.0000000000   1.4739403390
	   AG     1.4186613337   0.0000000000  -0.7369701695
	   AG    -1.4186613337  -0.0000000000  -0.7369701695
			--------------------------
			 OPTKING Finished Execution 
			--------------------------

    Structure for next step:
    Molecular point group: c2v
    Full point group: C2v

    Geometry (in Angstrom), charge = 0, multiplicity = 2:

    AG           0.000000000000    -0.000000000000     1.473940344783
    AG           1.418661339323     0.000000000000    -0.736970172392
    AG          -1.418661339323    -0.000000000000    -0.736970172392


Scratch directory: /tmp/
gradient() will perform analytic gradient computation.

*** tstart() called on compute229.bc4.acrc.priv
*** at Tue Nov  2 11:06:03 2021

   => Loading Basis Set <=

    Name: DEF2-TZVPPD
    Role: ORBITAL
    Keyword: BASIS
    atoms 1-3 entry AG         line  2174 (ECP: line  3646) file /mnt/storage/home/zw18965/.conda/envs/p4env/share/psi4/basis/def2-tzvppd.gbs 

    !!!  WARNING: ECP capability is in beta. Please check occupations closely.  !!!

   => MN15-D3(BJ): Empirical Dispersion <=

    Grimme's -D3 (BJ-damping) Dispersion Correction
    Grimme S.; Ehrlich S.; Goerigk L. (2011), J. Comput. Chem., 32: 1456
    Parametrisation from:    L. Goerigk, A. Hansen, C. Bauer, S. Ehrlich, A. Najibi, S. Grimme, Phys. Chem. Chem. Phys. 19, 32184-32215, 2017

        s6 =       1.000000
        s8 =       2.097100
        a1 =       0.786200
        a2 =       7.592300


         ---------------------------------------------------------
                                   SCF
               by Justin Turney, Rob Parrish, Andy Simmonett
                          and Daniel G. A. Smith
                              UKS Reference
                       28 Threads, 114440 MiB Core
         ---------------------------------------------------------

  ==> Geometry <==

    Molecular point group: c2v
    Full point group: C2v

    Geometry (in Angstrom), charge = 0, multiplicity = 2:

       Center              X                  Y                   Z               Mass       
    ------------   -----------------  -----------------  -----------------  -----------------
         AG           0.000000000000    -0.000000000000     1.473940344783   106.905091600000
         AG           1.418661339323     0.000000000000    -0.736970172392   106.905091600000
         AG          -1.418661339323    -0.000000000000    -0.736970172392   106.905091600000

  Running in c2v symmetry.

  Rotational constants: A =      0.04839  B =      0.03918  C =      0.02165 [cm^-1]
  Rotational constants: A =   1450.66702  B =   1174.44138  C =    649.01068 [MHz]
  Nuclear repulsion =  212.770979117388208

  Charge       = 0
  Multiplicity = 2
  Electrons    = 57
  Nalpha       = 29
  Nbeta        = 28

  ==> Algorithm <==

  SCF Algorithm Type is DF.
  DIIS enabled.
  MOM disabled.
  Fractional occupation disabled.
  Guess Type is READ.
  Energy threshold   = 1.00e-08
  Density threshold  = 1.00e-08
  Integral threshold = 1.00e-12

  ==> Primary Basis <==

  Basis Set: DEF2-TZVPPD
    Blend: DEF2-TZVPPD
    Number of shells: 48
    Number of basis functions: 168
    Number of Cartesian functions: 213
    Spherical Harmonics?: true
    Max angular momentum: 4

  Core potential: DEF2-TZVPPD
    Number of shells: 12
    Number of ECP primitives: 42
    Number of ECP core electrons: 84
    Max angular momentum: 3

  ==> DFT Potential <==

   => Composite Functional: MN15-D3BJ <= 

   MN15 Hybrid Meta-GGA Exchange-Correlation Functional

    H. S. Yu, X. He, S. L. Li, and D. G. Truhlar, Chem. Sci. 7, 5032-5051, 2016


    Deriv               =              1
    GGA                 =           TRUE
    Meta                =           TRUE

    Exchange Hybrid     =           TRUE
    MP2 Hybrid          =          FALSE

   => Exchange Functionals <=

    1.0000   XC_HYB_MGGA_X_MN15

   => Exact (HF) Exchange <=

    0.4400               HF 

   => Correlation Functionals <=

    1.0000   XC_MGGA_C_MN15

   => LibXC Density Thresholds  <==

    XC_MGGA_C_MN15:  1.00E-15 
    XC_HYB_MGGA_X_MN15:  1.00E-15 

   => Molecular Quadrature <=

    Radial Scheme          =       TREUTLER
    Pruning Scheme         =           NONE
    Nuclear Scheme         =       TREUTLER

    BS radius alpha        =              1
    Pruning alpha          =              1
    Radial Points          =             75
    Spherical Points       =            302
    Total Points           =          62841
    Total Blocks           =            573
    Max Points             =            256
    Max Functions          =            165
    Weights Tolerance      =       1.00E-15

   => Loading Basis Set <=

    Name: (DEF2-TZVPPD AUX)
    Role: JKFIT
    Keyword: DF_BASIS_SCF
    atoms 1-3 entry AG         line  4364 file /mnt/storage/home/zw18965/.conda/envs/p4env/share/psi4/basis/def2-universal-jkfit.gbs 

   => Loading Basis Set <=

    Name: DEF2-TZVPPD
    Role: ORBITAL
    Keyword: BASIS
    atoms 1-3 entry AG         line  2174 (ECP: line  3646) file /mnt/storage/home/zw18965/.conda/envs/p4env/share/psi4/basis/def2-tzvppd.gbs 

    !!!  WARNING: ECP capability is in beta. Please check occupations closely.  !!!

  Reading orbitals from file /tmp/Ag03N0_D3H.default.3268.180.npy, no projection.

  ==> Integral Setup <==

  DFHelper Memory: AOs need 0.177 GiB; user supplied 83.308 GiB. Using in-core AOs.

  ==> MemDFJK: Density-Fitted J/K Matrices <==

    J tasked:                   Yes
    K tasked:                   Yes
    wK tasked:                   No
    OpenMP threads:              28
    Memory [MiB]:             85307
    Algorithm:                 Core
    Schwarz Cutoff:           1E-12
    Mask sparsity (%):       1.5802
    Fitting Condition:        1E-10

   => Auxiliary Basis Set <=

  Basis Set: (DEF2-TZVPPD AUX)
    Blend: DEF2-UNIVERSAL-JKFIT
    Number of shells: 147
    Number of basis functions: 765
    Number of Cartesian functions: 1152
    Spherical Harmonics?: true
    Max angular momentum: 6

  Cached 100.0% of DFT collocation blocks in 0.511 [GiB].

  Minimum eigenvalue in the overlap matrix is 2.2830566968E-03.
  Reciprocal condition number of the overlap matrix is 4.7987674382E-04.
    Using symmetric orthogonalization.

  ==> Pre-Iterations <==

  SCF Guess: Orbitals guess was supplied from a previous computation.

   -------------------------------------------------------
    Irrep   Nso     Nmo     Nalpha   Nbeta   Ndocc  Nsocc
   -------------------------------------------------------
     A1        59      59      11      11      11       0
     A2        27      27       4       4       4       0
     B1        49      49       9       8       8       1
     B2        33      33       5       5       5       0
   -------------------------------------------------------
    Total     168     168      29      28      28       1
   -------------------------------------------------------

  ==> Iterations <==

                           Total Energy        Delta E     RMS |[F,P]|

   @DF-UKS iter   0:  -440.13673560201437   -4.40137e+02   1.24078e-03 
   @DF-UKS iter   1:  -440.13370925497816    3.02635e-03   3.29873e-05 DIIS
   @DF-UKS iter   2:  -440.13371682324328   -7.56827e-06   1.86900e-05 DIIS
   @DF-UKS iter   3:  -440.13371796746628   -1.14422e-06   1.02338e-05 DIIS
   @DF-UKS iter   4:  -440.13371846143423   -4.93968e-07   2.75937e-06 DIIS
   @DF-UKS iter   5:  -440.13371859603399   -1.34600e-07   1.73764e-06 DIIS
   @DF-UKS iter   6:  -440.13371862417944   -2.81455e-08   5.73813e-07 DIIS
   @DF-UKS iter   7:  -440.13371863636121   -1.21818e-08   2.22876e-07 DIIS
   @DF-UKS iter   8:  -440.13371863820930   -1.84809e-09   1.62009e-07 DIIS
   @DF-UKS iter   9:  -440.13371863877023   -5.60931e-10   7.78568e-08 DIIS
   @DF-UKS iter  10:  -440.13371863889188   -1.21645e-10   3.40662e-08 DIIS
   @DF-UKS iter  11:  -440.13371863891189   -2.00089e-11   1.34729e-08 DIIS
   @DF-UKS iter  12:  -440.13371863891393   -2.04636e-12   3.86163e-09 DIIS
  Energy and wave function converged.


  ==> Post-Iterations <==

   Electrons on quadrature grid:
      Nalpha   =   28.9999860867 ; deviation = -1.391e-05
      Nbeta    =   27.9999866149 ; deviation = -1.339e-05
      Ntotal   =   56.9999727016 ; deviation = -2.730e-05 

   @Spin Contamination Metric:   1.370081513E-02
   @S^2 Expected:                7.500000000E-01
   @S^2 Observed:                7.637008151E-01
   @S   Expected:                5.000000000E-01
   @S   Observed:                5.000000000E-01

    Orbital Energies [Eh]
    ---------------------

    Alpha Occupied:                                                       

       1A1    -3.663119     2A1    -3.644066     1B1    -3.643914  
       3A1    -2.315099     2B1    -2.312296     1B2    -2.312175  
       4A1    -2.295123     3B1    -2.293807     5A1    -2.293115  
       4B1    -2.292118     2B2    -2.291607     1A2    -2.291443  
       6A1    -0.424911     5B1    -0.417533     3B2    -0.407099  
       7A1    -0.402167     2A2    -0.395222     8A1    -0.387089  
       4B2    -0.377517     9A1    -0.364986     6B1    -0.363526  
      10A1    -0.362060     5B2    -0.361177     3A2    -0.360949  
       4A2    -0.357535     7B1    -0.356448     8B1    -0.341471  
      11A1    -0.285929     9B1    -0.173323  

    Alpha Virtual:                                                        

      12A1    -0.091128     6B2    -0.027729    13A1    -0.006507  
      10B1     0.007895    14A1     0.023429     5A2     0.048101  
       7B2     0.066189    11B1     0.100343    15A1     0.118035  
      12B1     0.118475    16A1     0.145725    17A1     0.194933  
      13B1     0.199931    18A1     0.205254     8B2     0.207845  
      14B1     0.217397    19A1     0.227767     6A2     0.263338  
       9B2     0.270231    15B1     0.330948    16B1     0.380231  
      20A1     0.386997    21A1     0.402186    10B2     0.418569  
       7A2     0.420512    11B2     0.440673    17B1     0.526046  
      22A1     0.528271     8A2     0.570524    23A1     0.594334  
       9A2     0.624657    12B2     0.628090    24A1     0.631490  
      18B1     0.636315    19B1     0.711337    25A1     0.716530  
      20B1     0.765411    21B1     1.448373    26A1     1.480186  
      27A1     1.522423    10A2     1.539901    13B2     1.542111  
      28A1     1.554367    22B1     1.565217    14B2     1.567941  
      15B2     1.577309    29A1     1.587884    11A2     1.594684  
      16B2     1.595308    23B1     1.596118    12A2     1.596961  
      17B2     1.607000    24B1     1.607505    25B1     1.618894  
      30A1     1.629356    13A2     1.638242    31A1     1.639753  
      18B2     1.641329    26B1     1.672106    32A1     1.690197  
      27B1     1.704995    33A1     1.725142    14A2     1.726778  
      19B2     1.735230    34A1     1.757586    28B1     1.759209  
      29B1     1.905516    35A1     1.944050    36A1     2.040539  
      15A2     2.045173    20B2     2.054323    30B1     2.081783  
      21B2     2.082727    37A1     2.084522    31B1     2.099498  
      16A2     2.099763    17A2     2.123993    22B2     2.125569  
      38A1     2.133386    32B1     2.160887    39A1     2.222061  
      33B1     2.249485    40A1     2.340658    41A1     2.476844  
      34B1     2.489802    42A1     4.562334    35B1     4.570659  
      18A2     4.577025    43A1     4.577788    23B2     4.577938  
      24B2     4.600911    36B1     4.601353    44A1     4.603228  
      25B2     4.612387    45A1     4.622853    26B2     4.623559  
      19A2     4.623926    37B1     4.627011    20A2     4.653064  
      38B1     4.664146    21A2     4.680659    27B2     4.691968  
      46A1     4.699516    39B1     4.776383    47A1     4.848848  
      40B1     4.862861    48A1     5.407841    28B2     5.408209  
      22A2     5.409595    29B2     5.410615    41B1     5.411365  
      49A1     5.412104    42B1     5.412625    23A2     5.412868  
      50A1     5.412931    24A2     5.428520    43B1     5.428542  
      51A1     5.428681    30B2     5.428897    44B1     5.429166  
      25A2     5.429286    52A1     5.429860    31B2     5.430384  
      32B2     5.430640    53A1     5.430774    26A2     5.431403  
      45B1     5.431697    54A1     5.432557    33B2     5.432609  
      46B1     5.432765    27A2     5.432864    47B1     5.435415  
      55A1     5.438442    56A1    32.803571    48B1    33.128302  
      57A1    33.133036    58A1   110.556419    59A1   110.656075  
      49B1   110.663075  

    Beta Occupied:                                                        

       1A1    -3.663126     2A1    -3.643250     1B1    -3.643096  
       3A1    -2.314667     2B1    -2.312150     1B2    -2.312099  
       4A1    -2.293626     3B1    -2.293516     5A1    -2.292752  
       2B2    -2.291369     1A2    -2.291173     4B1    -2.290302  
       6A1    -0.423578     5B1    -0.415610     3B2    -0.406611  
       7A1    -0.400507     2A2    -0.394489     8A1    -0.384008  
       4B2    -0.375000     9A1    -0.363662     6B1    -0.360645  
      10A1    -0.360167     5B2    -0.359568     3A2    -0.359263  
       4A2    -0.353694     7B1    -0.352576     8B1    -0.337586  
      11A1    -0.274043  

    Beta Virtual:                                                         

      12A1    -0.082752     9B1    -0.072030     6B2    -0.020386  
      13A1     0.025762    10B1     0.033539    14A1     0.040987  
       7B2     0.071802     5A2     0.077581    15A1     0.131289  
      11B1     0.136326    12B1     0.143261    16A1     0.152141  
      17A1     0.205084    18A1     0.213210     8B2     0.214167  
      13B1     0.220747    14B1     0.233700    19A1     0.239156  
       9B2     0.271206     6A2     0.273667    15B1     0.335496  
      16B1     0.381799    20A1     0.389249    21A1     0.400399  
      10B2     0.417111     7A2     0.422570    11B2     0.438505  
      22A1     0.527244    17B1     0.529392     8A2     0.568964  
      23A1     0.589379     9A2     0.621582    12B2     0.623857  
      24A1     0.628648    18B1     0.635952    19B1     0.707300  
      25A1     0.712453    20B1     0.763809    21B1     1.451418  
      26A1     1.481962    27A1     1.526206    10A2     1.542593  
      13B2     1.544005    28A1     1.561626    22B1     1.567234  
      14B2     1.571484    15B2     1.581542    29A1     1.593844  
      16B2     1.600778    11A2     1.601163    23B1     1.601408  
      12A2     1.603272    17B2     1.608095    24B1     1.613535  
      25B1     1.626434    30A1     1.632247    31A1     1.640916  
      13A2     1.641900    18B2     1.644489    26B1     1.675308  
      32A1     1.692699    27B1     1.709484    33A1     1.729597  
      14A2     1.730558    19B2     1.736601    28B1     1.762670  
      34A1     1.763931    29B1     1.907999    35A1     1.947734  
      36A1     2.044811    15A2     2.047453    20B2     2.059062  
      21B2     2.085507    37A1     2.087570    30B1     2.087851  
      16A2     2.104109    31B1     2.104441    22B2     2.127417  
      17A2     2.129390    38A1     2.137433    32B1     2.167645  
      39A1     2.223129    33B1     2.250809    40A1     2.340367  
      41A1     2.476149    34B1     2.492865    42A1     4.563684  
      35B1     4.572258    18A2     4.578118    23B2     4.578524  
      43A1     4.578682    24B2     4.601635    36B1     4.602117  
      44A1     4.606124    25B2     4.615084    45A1     4.625559  
      26B2     4.625996    19A2     4.626730    37B1     4.629602  
      20A2     4.656200    38B1     4.667167    21A2     4.682401  
      27B2     4.693499    46A1     4.701295    39B1     4.780061  
      47A1     4.850726    40B1     4.864426    48A1     5.407850  
      28B2     5.408091    22A2     5.409668    29B2     5.410604  
      41B1     5.411381    49A1     5.412041    23A2     5.412476  
      50A1     5.412739    42B1     5.412822    24A2     5.429340  
      30B2     5.429797    43B1     5.429816    25A2     5.430051  
      51A1     5.430215    44B1     5.430396    52A1     5.430462  
      31B2     5.431011    32B2     5.431787    53A1     5.431811  
      45B1     5.431988    26A2     5.432163    54A1     5.433329  
      46B1     5.433448    33B2     5.433499    27A2     5.434048  
      47B1     5.436837    55A1     5.439470    56A1    32.808931  
      57A1    33.134628    48B1    33.135906    58A1   110.558078  
      59A1   110.656719    49B1   110.665683  

    Final Occupation by Irrep:
             A1    A2    B1    B2 
    DOCC [    11,    4,    8,    5 ]
    SOCC [     0,    0,    1,    0 ]

  @DF-UKS Final Energy:  -440.13371863891393

   => Energetics <=

    Nuclear Repulsion Energy =            212.7709791173882081
    One-Electron Energy =               -1207.0613937778759919
    Two-Electron Energy =                 578.1273600231936598
    DFT Exchange-Correlation Energy =     -23.9705350016198118
    Empirical Dispersion Energy =          -0.0001290000000000
    VV10 Nonlocal Energy =                  0.0000000000000000
    Total Energy =                       -440.1337186389139902

  UHF NO Occupations:
  HONO-2 :    8 B1 1.9998688
  HONO-1 :   11 A1 1.9937007
  HONO-0 :    9 B1 1.0000000
  LUNO+0 :   12 A1 0.0062993
  LUNO+1 :   10 B1 0.0001312
  LUNO+2 :   13 A1 0.0001136
  LUNO+3 :    6 B2 0.0000888


Computation Completed


Properties will be evaluated at   0.000000,   0.000000,   0.000000 [a0]

Properties computed using the SCF density matrix

  Nuclear Dipole Moment: [e a0]
     X:    -0.0000      Y:     0.0000      Z:    -0.0000

  Electronic Dipole Moment: [e a0]
     X:     0.0000      Y:     0.0000      Z:     0.3386

  Dipole Moment: [e a0]
     X:    -0.0000      Y:     0.0000      Z:     0.3386     Total:     0.3386

  Dipole Moment: [D]
     X:    -0.0000      Y:     0.0000      Z:     0.8607     Total:     0.8607


*** tstop() called on compute229.bc4.acrc.priv at Tue Nov  2 11:06:21 2021
Module time:
	user time   =     366.65 seconds =       6.11 minutes
	system time =      10.26 seconds =       0.17 minutes
	total time  =         18 seconds =       0.30 minutes
Total time:
	user time   =    3619.82 seconds =      60.33 minutes
	system time =      63.47 seconds =       1.06 minutes
	total time  =        452 seconds =       7.53 minutes

*** tstart() called on compute229.bc4.acrc.priv
*** at Tue Nov  2 11:06:21 2021


         ------------------------------------------------------------
                                   SCF GRAD                          
                          Rob Parrish, Justin Turney,                
                       Andy Simmonett, and Alex Sokolov              
         ------------------------------------------------------------

  ==> Geometry <==

    Molecular point group: c2v
    Full point group: C2v

    Geometry (in Angstrom), charge = 0, multiplicity = 2:

       Center              X                  Y                   Z               Mass       
    ------------   -----------------  -----------------  -----------------  -----------------
         AG           0.000000000000     0.000000000000     1.473940344783   106.905091600000
         AG           1.418661339323     0.000000000000    -0.736970172392   106.905091600000
         AG          -1.418661339323    -0.000000000000    -0.736970172392   106.905091600000

  Nuclear repulsion =  212.770979117388208

  ==> Basis Set <==

  Basis Set: DEF2-TZVPPD
    Blend: DEF2-TZVPPD
    Number of shells: 48
    Number of basis functions: 168
    Number of Cartesian functions: 213
    Spherical Harmonics?: true
    Max angular momentum: 4

  Core potential: DEF2-TZVPPD
    Number of shells: 12
    Number of ECP primitives: 42
    Number of ECP core electrons: 84
    Max angular momentum: 3

  ==> DFJKGrad: Density-Fitted SCF Gradients <==

    Gradient:                    1
    J tasked:                  Yes
    K tasked:                  Yes
    wK tasked:                  No
    OpenMP threads:             28
    Integrals threads:          28
    Memory [MiB]:            85830
    Schwarz Cutoff:          1E-12
    Fitting Condition:       1E-10

   => Auxiliary Basis Set <=

  Basis Set: (DEF2-TZVPPD AUX)
    Blend: DEF2-UNIVERSAL-JKFIT
    Number of shells: 147
    Number of basis functions: 765
    Number of Cartesian functions: 1152
    Spherical Harmonics?: true
    Max angular momentum: 6

  ==> DFT Potential <==

   => Composite Functional: MN15-D3BJ <= 

   MN15 Hybrid Meta-GGA Exchange-Correlation Functional

    H. S. Yu, X. He, S. L. Li, and D. G. Truhlar, Chem. Sci. 7, 5032-5051, 2016


    Deriv               =              1
    GGA                 =           TRUE
    Meta                =           TRUE

    Exchange Hybrid     =           TRUE
    MP2 Hybrid          =          FALSE

   => Exchange Functionals <=

    1.0000   XC_HYB_MGGA_X_MN15

   => Exact (HF) Exchange <=

    0.4400               HF 

   => Correlation Functionals <=

    1.0000   XC_MGGA_C_MN15

   => LibXC Density Thresholds  <==

    XC_MGGA_C_MN15:  1.00E-15 
    XC_HYB_MGGA_X_MN15:  1.00E-15 

   => Molecular Quadrature <=

    Radial Scheme          =       TREUTLER
    Pruning Scheme         =           NONE
    Nuclear Scheme         =       TREUTLER

    BS radius alpha        =              1
    Pruning alpha          =              1
    Radial Points          =             75
    Spherical Points       =            302
    Total Points           =          62841
    Total Blocks           =            573
    Max Points             =            256
    Max Functions          =            165
    Weights Tolerance      =       1.00E-15


  -Total Gradient:
     Atom            X                  Y                   Z
    ------   -----------------  -----------------  -----------------
       1        0.000000000000     0.000000000000    -0.173854985662
       2       -0.095560225695    -0.000000000000     0.086914726017
       3        0.095560225695     0.000000000000     0.086914726017


*** tstop() called on compute229.bc4.acrc.priv at Tue Nov  2 11:06:32 2021
Module time:
	user time   =      98.18 seconds =       1.64 minutes
	system time =       2.86 seconds =       0.05 minutes
	total time  =         11 seconds =       0.18 minutes
Total time:
	user time   =    3720.86 seconds =      62.01 minutes
	system time =      66.47 seconds =       1.11 minutes
	total time  =        463 seconds =       7.72 minutes


  ==> Adding ECP gradient terms (computed numerically) <==

  -ECP Gradient:
     Atom            X                  Y                   Z
    ------   -----------------  -----------------  -----------------
       1        0.000000000000     0.000000000000     0.174461729661
       2        0.092767124293     0.000000000000    -0.087230864558
       3       -0.092767124293    -0.000000000000    -0.087230864558


  -Total Gradient:
     Atom            X                  Y                   Z
    ------   -----------------  -----------------  -----------------
       1        0.000000000000     0.000000000000     0.000606743999
       2       -0.002793101402    -0.000000000000    -0.000316138542
       3        0.002793101402     0.000000000000    -0.000316138542


			-----------------------------------------
			 OPTKING 2.0: for geometry optimizations 
			  - R.A. King,  Bethel University        
			-----------------------------------------
	At level 1: Red. Int., RFO, no backsteps, dynamic trust

	Previous internal coordinate definitions found.
	---Fragment 1 Geometry and Gradient---
	 AG          0.0000000000        0.0000000000        2.7853435769
	 AG          2.6808813961        0.0000000000       -1.3926717885
	 AG         -2.6808813961       -0.0000000000       -1.3926717885
	             0.0000000000        0.0000000000        0.0006067440
	            -0.0027931014       -0.0000000000       -0.0003161385
	             0.0027931014        0.0000000000       -0.0003161385

	---Fragment 1 Intrafragment Coordinates---
	 - Coordinate -           - BOHR/RAD -       - ANG/DEG -
	 R(1,2)           =         4.964165	       2.626923
	 R(1,3)           =         4.964165	       2.626923
	 R(2,3)           =         5.361763	       2.837323
	 B(1,2,3)         =         1.000304	      57.313178
	 B(1,3,2)         =         1.000304	      57.313178
	 B(2,1,3)         =         1.140985	      65.373644

	Current energy   :      -440.1337186389

	Energy change for the previous step:
		Projected    :        -0.0045166213
		Actual       :        -0.0011095289
	Energy ratio indicates iffy step: Trust radius decreased to 2.500e-01.


	Performing BFGS update.
	Previous computed or guess Hessian on step 1.
	Steps to be used in Hessian update: 2 1
	Taking RFO optimization step.
	Going to follow RFO solution 1.
[...]
      66Ap     2.082837    67Ap     2.085214    68Ap     2.097961  
      37App    2.100075    38App    2.124892    39App    2.126030  
      69Ap     2.142973    70Ap     2.143250    71Ap     2.222703  
      72Ap     2.256020    73Ap     2.328816    74Ap     2.461519  
      75Ap     2.479660    76Ap     4.566387    77Ap     4.571777  
      40App    4.576606    78Ap     4.579207    41App    4.579466  
      79Ap     4.600371    42App    4.602358    80Ap     4.611224  
      43App    4.618627    44App    4.623892    81Ap     4.624628  
      45App    4.625051    82Ap     4.626892    46App    4.644346  
      83Ap     4.656099    47App    4.682256    48App    4.693097  
      84Ap     4.705196    85Ap     4.745682    86Ap     4.850856  
      87Ap     4.868330    88Ap     5.409472    49App    5.409713  
      50App    5.411112    51App    5.412176    89Ap     5.412680  
      90Ap     5.413779    91Ap     5.413878    52App    5.414219  
      92Ap     5.414449    53App    5.429246    93Ap     5.429248  
      54App    5.429639    94Ap     5.429706    55App    5.429959  
      95Ap     5.430044    96Ap     5.430704    56App    5.430906  
      57App    5.431482    97Ap     5.431520    58App    5.431939  
      98Ap     5.432378    99Ap     5.433242    59App    5.433364  
     100Ap     5.433438    60App    5.433526   101Ap     5.435460  
     102Ap     5.438911   103Ap    32.795190   104Ap    33.107495  
     105Ap    33.126006   106Ap   110.554992   107Ap   110.654384  
     108Ap   110.657132  

    Beta Occupied:                                                        

       1Ap    -3.661739     2Ap    -3.642326     3Ap    -3.642234  
       4Ap    -2.313221     5Ap    -2.310831     1App   -2.310591  
       6Ap    -2.292739     7Ap    -2.292700     8Ap    -2.291428  
       2App   -2.290622     3App   -2.290488     9Ap    -2.289726  
      10Ap    -0.420579    11Ap    -0.415287     4App   -0.404768  
      12Ap    -0.399389     5App   -0.393856    13Ap    -0.379843  
       6App   -0.372218    14Ap    -0.361972    15Ap    -0.361397  
       7App   -0.358645     8App   -0.358380    16Ap    -0.358064  
       9App   -0.354744    17Ap    -0.353512    18Ap    -0.338134  
      19Ap    -0.272039  

    Beta Virtual:                                                         

      20Ap    -0.080373    21Ap    -0.074882    10App   -0.019707  
      22Ap     0.026575    23Ap     0.032665    24Ap     0.039920  
      11App    0.073418    12App    0.075194    25Ap     0.132506  
      26Ap     0.136578    27Ap     0.138620    28Ap     0.152355  
      29Ap     0.205709    30Ap     0.212109    13App    0.215064  
      31Ap     0.220551    32Ap     0.232743    33Ap     0.239620  
      14App    0.271460    15App    0.273499    34Ap     0.329337  
      35Ap     0.376303    36Ap     0.389566    37Ap     0.403594  
      16App    0.410780    17App    0.422483    18App    0.442203  
      38Ap     0.525774    39Ap     0.526279    19App    0.567184  
      40Ap     0.585508    20App    0.618186    21App    0.624663  
      41Ap     0.626837    42Ap     0.635573    43Ap     0.705157  
      44Ap     0.715845    45Ap     0.763169    46Ap     1.446083  
      47Ap     1.480925    48Ap     1.530622    22App    1.542124  
      23App    1.545700    49Ap     1.565709    24App    1.572727  
      50Ap     1.578485    25App    1.586211    51Ap     1.597269  
      26App    1.598612    52Ap     1.601438    27App    1.601955  
      28App    1.602208    53Ap     1.602486    29App    1.610679  
      54Ap     1.616713    55Ap     1.634904    30App    1.641336  
      56Ap     1.642746    31App    1.644714    57Ap     1.675730  
      58Ap     1.693133    59Ap     1.715767    32App    1.726215  
      60Ap     1.732099    33App    1.737039    61Ap     1.756510  
      62Ap     1.758726    63Ap     1.903648    64Ap     1.945829  
      65Ap     2.046216    34App    2.048730    35App    2.059056  
      36App    2.083541    66Ap     2.088095    67Ap     2.089271  
      68Ap     2.102562    37App    2.104486    38App    2.127834  
      39App    2.130326    69Ap     2.146927    70Ap     2.150079  
      71Ap     2.223870    72Ap     2.257383    73Ap     2.329129  
      74Ap     2.460662    75Ap     2.482833    76Ap     4.567674  
      77Ap     4.573420    40App    4.577733    78Ap     4.580012  
      41App    4.580041    79Ap     4.601200    42App    4.602963  
      80Ap     4.614201    43App    4.621498    44App    4.626762  
      81Ap     4.627426    45App    4.627504    82Ap     4.629625  
      46App    4.647589    83Ap     4.658923    47App    4.683865  
      48App    4.694671    84Ap     4.707057    85Ap     4.749294  
      86Ap     4.852795    87Ap     4.869920    88Ap     5.409472  
      49App    5.409582    50App    5.411189    51App    5.412178  
      89Ap     5.412738    90Ap     5.413592    52App    5.413814  
      91Ap     5.414062    92Ap     5.414380    53App    5.430060  
      54App    5.430388    93Ap     5.430496    55App    5.430735  
      94Ap     5.431044    95Ap     5.431187    96Ap     5.431394  
      56App    5.431727    97Ap     5.432528    57App    5.432588  
      58App    5.432838    98Ap     5.432861    99Ap     5.434124  
     100Ap     5.434153    59App    5.434318    60App    5.434651  
     101Ap     5.436868   102Ap     5.439957   103Ap    32.800950  
     104Ap    33.115348   105Ap    33.127350   106Ap   110.556798  
     107Ap   110.654925   108Ap   110.659840  

    Final Occupation by Irrep:
             Ap   App 
    DOCC [    19,    9 ]
    SOCC [     1,    0 ]

  @DF-UKS Final Energy:  -440.13400225459736

   => Energetics <=

    Nuclear Repulsion Energy =            210.6687362141651931
    One-Electron Energy =               -1202.9172554819178913
    Two-Electron Energy =                 576.0835076413204661
    DFT Exchange-Correlation Energy =     -23.9688616381652615
    Empirical Dispersion Energy =          -0.0001289900000000
    VV10 Nonlocal Energy =                  0.0000000000000000
    Total Energy =                       -440.1340022545975330

  UHF NO Occupations:
  HONO-2 :   18 Ap 1.9998773
  HONO-1 :   19 Ap 1.9933153
  HONO-0 :   20 Ap 1.0000000
  LUNO+0 :   21 Ap 0.0066847
  LUNO+1 :   22 Ap 0.0001227
  LUNO+2 :   23 Ap 0.0001057
  LUNO+3 :   10App 0.0000830


Computation Completed


Properties will be evaluated at   0.000000,   0.000000,   0.000000 [a0]

Properties computed using the SCF density matrix

  Nuclear Dipole Moment: [e a0]
     X:     0.0000      Y:     0.0000      Z:    -0.0000

  Electronic Dipole Moment: [e a0]
     X:    -0.0006      Y:     0.0000      Z:     0.2832

  Dipole Moment: [e a0]
     X:    -0.0006      Y:     0.0000      Z:     0.2832     Total:     0.2832

  Dipole Moment: [D]
     X:    -0.0016      Y:     0.0000      Z:     0.7198     Total:     0.7198


*** tstop() called on compute229.bc4.acrc.priv at Tue Nov  2 11:49:12 2021
Module time:
	user time   =     499.94 seconds =       8.33 minutes
	system time =      13.89 seconds =       0.23 minutes
	total time  =         24 seconds =       0.40 minutes
Total time:
	user time   =   22760.47 seconds =     379.34 minutes
	system time =     325.86 seconds =       5.43 minutes
	total time  =       3023 seconds =      50.38 minutes

*** tstart() called on compute229.bc4.acrc.priv
*** at Tue Nov  2 11:49:12 2021


         ------------------------------------------------------------
                                   SCF GRAD                          
                          Rob Parrish, Justin Turney,                
                       Andy Simmonett, and Alex Sokolov              
         ------------------------------------------------------------

  ==> Geometry <==

    Molecular point group: cs
    Full point group: Cs

    Geometry (in Angstrom), charge = 0, multiplicity = 2:

       Center              X                  Y                   Z               Mass       
    ------------   -----------------  -----------------  -----------------  -----------------
         AG          -0.000158996846     0.000000000000     1.447491329678   106.905091600000
         AG           1.470356851026     0.000000000000    -0.723863064401   106.905091600000
         AG          -1.470197854180     0.000000000000    -0.723628265277   106.905091600000

  Nuclear repulsion =  210.668736214165193

  ==> Basis Set <==

  Basis Set: DEF2-TZVPPD
    Blend: DEF2-TZVPPD
    Number of shells: 48
    Number of basis functions: 168
    Number of Cartesian functions: 213
    Spherical Harmonics?: true
    Max angular momentum: 4

  Core potential: DEF2-TZVPPD
    Number of shells: 12
    Number of ECP primitives: 42
    Number of ECP core electrons: 84
    Max angular momentum: 3

  ==> DFJKGrad: Density-Fitted SCF Gradients <==

    Gradient:                    1
    J tasked:                  Yes
    K tasked:                  Yes
    wK tasked:                  No
    OpenMP threads:             28
    Integrals threads:          28
    Memory [MiB]:            85830
    Schwarz Cutoff:          1E-12
    Fitting Condition:       1E-10

   => Auxiliary Basis Set <=

  Basis Set: (DEF2-TZVPPD AUX)
    Blend: DEF2-UNIVERSAL-JKFIT
    Number of shells: 147
    Number of basis functions: 765
    Number of Cartesian functions: 1152
    Spherical Harmonics?: true
    Max angular momentum: 6

  ==> DFT Potential <==

   => Composite Functional: MN15-D3BJ <= 

   MN15 Hybrid Meta-GGA Exchange-Correlation Functional

    H. S. Yu, X. He, S. L. Li, and D. G. Truhlar, Chem. Sci. 7, 5032-5051, 2016


    Deriv               =              1
    GGA                 =           TRUE
    Meta                =           TRUE

    Exchange Hybrid     =           TRUE
    MP2 Hybrid          =          FALSE

   => Exchange Functionals <=

    1.0000   XC_HYB_MGGA_X_MN15

   => Exact (HF) Exchange <=

    0.4400               HF 

   => Correlation Functionals <=

    1.0000   XC_MGGA_C_MN15

   => LibXC Density Thresholds  <==

    XC_MGGA_C_MN15:  1.00E-15 
    XC_HYB_MGGA_X_MN15:  1.00E-15 

   => Molecular Quadrature <=

    Radial Scheme          =       TREUTLER
    Pruning Scheme         =           NONE
    Nuclear Scheme         =       TREUTLER

    BS radius alpha        =              1
    Pruning alpha          =              1
    Radial Points          =             75
    Spherical Points       =            302
    Total Points           =          62847
    Total Blocks           =            585
    Max Points             =            255
    Max Functions          =            165
    Weights Tolerance      =       1.00E-15


  -Total Gradient:
     Atom            X                  Y                   Z
    ------   -----------------  -----------------  -----------------
       1       -0.000090264916     0.000000000000    -0.173503779863
       2       -0.084970702571     0.000000000000     0.086624305997
       3        0.085061310458     0.000000000000     0.086774743275


*** tstop() called on compute229.bc4.acrc.priv at Tue Nov  2 11:49:23 2021
Module time:
	user time   =      95.32 seconds =       1.59 minutes
	system time =       2.59 seconds =       0.04 minutes
	total time  =         11 seconds =       0.18 minutes
Total time:
	user time   =   22858.43 seconds =     380.97 minutes
	system time =     328.57 seconds =       5.48 minutes
	total time  =       3034 seconds =      50.57 minutes


  ==> Adding ECP gradient terms (computed numerically) <==

  -ECP Gradient:
     Atom            X                  Y                   Z
    ------   -----------------  -----------------  -----------------
       1        0.000076592386     0.000000000000     0.173485524589
       2        0.084969192583     0.000000000000    -0.086678304344
       3       -0.085045779912     0.000000000000    -0.086807220410


  -Total Gradient:
     Atom            X                  Y                   Z
    ------   -----------------  -----------------  -----------------
       1       -0.000013672531     0.000000000000    -0.000018255274
       2       -0.000001509988     0.000000000000    -0.000053998347
       3        0.000015530546     0.000000000000    -0.000032477135


         ----------------------------------------------------------
                                   FINDIF
                     R. A. King and Jonathon Misiewicz
         ---------------------------------------------------------

  Computing second-derivative from gradients using projected, 
  symmetry-adapted, cartesian coordinates.

  6 gradients passed in, including the reference geometry.
  Generating complete list of displacements from unique ones.

    Operation 2 takes plus displacements of irrep B1 to minus ones.

-------------------------------------------------------------


  ==> Harmonic Vibrational Analysis <==

  non-mass-weighted Hessian:       Symmetric? True   Hermitian? True   Lin Dep Dim?  6 (0)
  projection of translations (True) and rotations (True) removed 6 degrees of freedom (6)
  total projector:                 Symmetric? True   Hermitian? True   Lin Dep Dim?  6 (6)
  mass-weighted Hessian:           Symmetric? True   Hermitian? True   Lin Dep Dim?  6 (0)
  pre-proj  low-frequency mode:    0.0000i [cm^-1]
  pre-proj  low-frequency mode:    0.0000i [cm^-1]
  pre-proj  low-frequency mode:    0.0000i [cm^-1]
  pre-proj  low-frequency mode:    0.0000  [cm^-1]
  pre-proj  low-frequency mode:    0.0000  [cm^-1]
  pre-proj  low-frequency mode:    0.0000  [cm^-1]
  pre-proj  low-frequency mode:   68.5019  [cm^-1]
  pre-proj  all modes:['0.0000i' '0.0000i' '0.0000i' '0.0000' '0.0000' '0.0000' '68.5019'
 '107.7734' '179.3045']
  projected mass-weighted Hessian: Symmetric? True   Hermitian? True   Lin Dep Dim?  6 (6)
  post-proj low-frequency mode:    0.0000i [cm^-1] (TR)
  post-proj low-frequency mode:    0.0000i [cm^-1] (TR)
  post-proj low-frequency mode:    0.0000i [cm^-1] (TR)
  post-proj low-frequency mode:    0.0000  [cm^-1] (TR)
  post-proj low-frequency mode:    0.0000  [cm^-1] (TR)
  post-proj low-frequency mode:    0.0000  [cm^-1] (TR)
  post-proj low-frequency mode:   68.5019  [cm^-1] (V)
  post-proj  all modes:['0.0000i' '0.0000i' '0.0000i' '0.0000' '0.0000' '0.0000' '68.5019'
 '107.7734' '179.3045']

  Vibration                       7                   8                   9           
  Freq [cm^-1]                 68.5019             107.7734            179.3045       
  Irrep                           A1                  B1                  A1          
  Reduced mass [u]             106.9051            106.9051            106.9051       
  Force const [mDyne/A]         0.2956              0.7316              2.0250        
  Turning point v=0 [a0]        0.1282              0.1022              0.0793        
  RMS dev v=0 [a0 u^1/2]        0.9374              0.7474              0.5794        
  Char temp [K]                98.5590             155.0619            257.9793       
  ----------------------------------------------------------------------------------
      1   AG              -0.00 -0.00 -0.36    0.62  0.00 -0.00   -0.00 -0.00  0.73   
      2   AG               0.63  0.00  0.18   -0.31 -0.00  0.46    0.31  0.00 -0.37   
      3   AG              -0.63 -0.00  0.18   -0.31 -0.00 -0.46   -0.31 -0.00 -0.37   

  ==> Thermochemistry Components <==

  Entropy, S
    Electronic S            1.377 [cal/(mol K)]        5.763 [J/(mol K)]       0.00219507 [mEh/K] (multiplicity = 2)
    Translational S        43.192 [cal/(mol K)]      180.714 [J/(mol K)]       0.06883047 [mEh/K] (mol. weight = 320.7153 [u], P = 101325.00 [Pa])
    Rotational S           28.736 [cal/(mol K)]      120.231 [J/(mol K)]       0.04579340 [mEh/K] (symmetry no. = 2)
    Vibrational S           9.840 [cal/(mol K)]       41.171 [J/(mol K)]       0.01568137 [mEh/K]
  Total S                  83.145 [cal/(mol K)]      347.880 [J/(mol K)]       0.13250031 [mEh/K]
  Correction S              0.000 [cal/(mol K)]        0.000 [J/(mol K)]       0.00000000 [mEh/K]

  Constant volume heat capacity, Cv
    Electronic Cv           0.000 [cal/(mol K)]        0.000 [J/(mol K)]       0.00000000 [mEh/K]
    Translational Cv        2.981 [cal/(mol K)]       12.472 [J/(mol K)]       0.00475022 [mEh/K]
    Rotational Cv           2.981 [cal/(mol K)]       12.472 [J/(mol K)]       0.00475022 [mEh/K]
    Vibrational Cv          5.780 [cal/(mol K)]       24.183 [J/(mol K)]       0.00921093 [mEh/K]
  Total Cv                 11.742 [cal/(mol K)]       49.127 [J/(mol K)]       0.01871136 [mEh/K]
  Correction Cv             0.000 [cal/(mol K)]        0.000 [J/(mol K)]       0.00000000 [mEh/K]

  Constant pressure heat capacity, Cp
    Electronic Cp           0.000 [cal/(mol K)]        0.000 [J/(mol K)]       0.00000000 [mEh/K]
    Translational Cp        4.968 [cal/(mol K)]       20.786 [J/(mol K)]       0.00791703 [mEh/K]
    Rotational Cp           2.981 [cal/(mol K)]       12.472 [J/(mol K)]       0.00475022 [mEh/K]
    Vibrational Cp          5.780 [cal/(mol K)]       24.183 [J/(mol K)]       0.00921093 [mEh/K]
  Total Cp                 13.729 [cal/(mol K)]       57.441 [J/(mol K)]       0.02187817 [mEh/K]
  Correction Cp             0.000 [cal/(mol K)]        0.000 [J/(mol K)]       0.00000000 [mEh/K]

  ==> Thermochemistry Energy Analysis <==

  Raw electronic energy, E0
  Total E0, Electronic energy at well bottom at 0 [K]                 -440.13400226 [Eh]

  Zero-point energy, ZPE_vib = Sum_i nu_i / 2
    Electronic ZPE          0.000 [kcal/mol]        0.000 [kJ/mol]       0.00000000 [Eh]
    Translational ZPE       0.000 [kcal/mol]        0.000 [kJ/mol]       0.00000000 [Eh]
    Rotational ZPE          0.000 [kcal/mol]        0.000 [kJ/mol]       0.00000000 [Eh]
    Vibrational ZPE         0.508 [kcal/mol]        2.127 [kJ/mol]       0.00081007 [Eh]         177.790 [cm^-1]
  Correction ZPE            0.508 [kcal/mol]        2.127 [kJ/mol]       0.00081007 [Eh]         177.790 [cm^-1]
  Total ZPE, Electronic energy at 0 [K]                               -440.13319219 [Eh]

  Thermal Energy, E (includes ZPE)
    Electronic E            0.000 [kcal/mol]        0.000 [kJ/mol]       0.00000000 [Eh]
    Translational E         0.889 [kcal/mol]        3.718 [kJ/mol]       0.00141628 [Eh]
    Rotational E            0.889 [kcal/mol]        3.718 [kJ/mol]       0.00141628 [Eh]
    Vibrational E           1.833 [kcal/mol]        7.668 [kJ/mol]       0.00292051 [Eh]
  Correction E              3.610 [kcal/mol]       15.105 [kJ/mol]       0.00575306 [Eh]
  Total E, Electronic energy at  298.15 [K]                           -440.12824920 [Eh]

  Enthalpy, H_trans = E_trans + k_B * T
    Electronic H            0.000 [kcal/mol]        0.000 [kJ/mol]       0.00000000 [Eh]
    Translational H         1.481 [kcal/mol]        6.197 [kJ/mol]       0.00236046 [Eh]
    Rotational H            0.889 [kcal/mol]        3.718 [kJ/mol]       0.00141628 [Eh]
    Vibrational H           1.833 [kcal/mol]        7.668 [kJ/mol]       0.00292051 [Eh]
  Correction H              4.203 [kcal/mol]       17.584 [kJ/mol]       0.00669725 [Eh]
  Total H, Enthalpy at  298.15 [K]                                    -440.12730502 [Eh]

  Gibbs free energy, G = H - T * S
    Electronic G           -0.411 [kcal/mol]       -1.718 [kJ/mol]      -0.00065446 [Eh]
    Translational G       -11.396 [kcal/mol]      -47.683 [kJ/mol]      -0.01816134 [Eh]
    Rotational G           -7.679 [kcal/mol]      -32.128 [kJ/mol]      -0.01223703 [Eh]
    Vibrational G          -1.101 [kcal/mol]       -4.607 [kJ/mol]      -0.00175489 [Eh]
  Correction G            -20.587 [kcal/mol]      -86.137 [kJ/mol]      -0.03280772 [Eh]
  Total G, Free enthalpy at  298.15 [K]                               -440.16680998 [Eh]

    Psi4 stopped on: Tuesday, 02 November 2021 11:52AM
    Psi4 wall time for execution: 0:53:38.80

*** Psi4 exiting successfully. Buy a developer a beer!
