
    -----------------------------------------------------------------------
          Psi4: An Open-Source Ab Initio Electronic Structure Package
                               Psi4 1.4.1 release

                         Git: Rev {HEAD} cd00f19 


    D. G. A. Smith, L. A. Burns, A. C. Simmonett, R. M. Parrish,
    M. C. Schieber, R. Galvelis, P. Kraus, H. Kruse, R. Di Remigio,
    A. Alenaizan, A. M. James, S. Lehtola, J. P. Misiewicz, M. Scheurer,
    R. A. Shaw, J. B. Schriber, Y. Xie, Z. L. Glick, D. A. Sirianni,
    J. S. O'Brien, J. M. Waldrop, A. Kumar, E. G. Hohenstein,
    B. P. Pritchard, B. R. Brooks, H. F. Schaefer III, A. Yu. Sokolov,
    K. Patkowski, A. E. DePrince III, U. Bozkaya, R. A. King,
    F. A. Evangelista, J. M. Turney, T. D. Crawford, C. D. Sherrill,
    J. Chem. Phys. 152(18) 184108 (2020). https://doi.org/10.1063/5.0006002

                            Additional Code Authors
    E. T. Seidl, C. L. Janssen, E. F. Valeev, M. L. Leininger,
    J. F. Gonthier, R. M. Richard, H. R. McAlexander, M. Saitow, X. Wang,
    P. Verma, and M. H. Lechner

             Previous Authors, Complete List of Code Contributors,
                       and Citations for Specific Modules
    https://github.com/psi4/psi4/blob/master/codemeta.json
    https://github.com/psi4/psi4/graphs/contributors
    http://psicode.org/psi4manual/master/introduction.html#citing-psifour

    -----------------------------------------------------------------------


    Psi4 started on: Friday, 05 November 2021 07:21AM

    Process ID: 16022
    Host:       compute490.bc4.acrc.priv
    PSIDATADIR: /mnt/storage/home/zw18965/.conda/envs/p4env/share/psi4
    Memory:     500.0 MiB
    Threads:    28
    
  ==> Input File <==

--------------------------------------------------------------------------
memory 120 GB

molecule {
0 1
Au       0.000000    0.000000    1.239541 
Au       0.000000    0.000000   -1.239541 
 }

set dynamic_level 1
set basis Def2-TZVPPD

optimize("MN15-D3BJ")
frequencies("MN15-D3BJ")
--------------------------------------------------------------------------

  Memory set to 111.759 GiB by Python driver.

Scratch directory: /tmp/
gradient() will perform analytic gradient computation.

*** tstart() called on compute490.bc4.acrc.priv
*** at Fri Nov  5 07:21:13 2021

   => Loading Basis Set <=

    Name: DEF2-TZVPPD
    Role: ORBITAL
    Keyword: BASIS
    atoms 1-2 entry AU         line  2995 (ECP: line  4084) file /mnt/storage/home/zw18965/.conda/envs/p4env/share/psi4/basis/def2-tzvppd.gbs 

    !!!  WARNING: ECP capability is in beta. Please check occupations closely.  !!!

   => MN15-D3(BJ): Empirical Dispersion <=

    Grimme's -D3 (BJ-damping) Dispersion Correction
    Grimme S.; Ehrlich S.; Goerigk L. (2011), J. Comput. Chem., 32: 1456
    Parametrisation from:    L. Goerigk, A. Hansen, C. Bauer, S. Ehrlich, A. Najibi, S. Grimme, Phys. Chem. Chem. Phys. 19, 32184-32215, 2017

        s6 =       1.000000
        s8 =       2.097100
        a1 =       0.786200
        a2 =       7.592300


         ---------------------------------------------------------
                                   SCF
               by Justin Turney, Rob Parrish, Andy Simmonett
                          and Daniel G. A. Smith
                              RKS Reference
                       28 Threads, 114440 MiB Core
         ---------------------------------------------------------

  ==> Geometry <==

    Molecular point group: d2h
    Full point group: D_inf_h

    Geometry (in Angstrom), charge = 0, multiplicity = 1:

       Center              X                  Y                   Z               Mass       
    ------------   -----------------  -----------------  -----------------  -----------------
         AU           0.000000000000     0.000000000000     1.239541000000   196.966568790000
         AU           0.000000000000     0.000000000000    -1.239541000000   196.966568790000

  Running in d2h symmetry.

  Rotational constants: A = ************  B =      0.02785  C =      0.02785 [cm^-1]
  Rotational constants: A = ************  B =    834.97388  C =    834.97388 [MHz]
  Nuclear repulsion =   77.057948487331174

  Charge       = 0
  Multiplicity = 1
  Electrons    = 38
  Nalpha       = 19
  Nbeta        = 19

  ==> Algorithm <==

  SCF Algorithm Type is DF.
  DIIS enabled.
  MOM disabled.
  Fractional occupation disabled.
  Guess Type is SAD.
  Energy threshold   = 1.00e-08
  Density threshold  = 1.00e-08
  Integral threshold = 1.00e-12

  ==> Primary Basis <==

  Basis Set: DEF2-TZVPPD
    Blend: DEF2-TZVPPD
    Number of shells: 34
    Number of basis functions: 118
    Number of Cartesian functions: 148
    Spherical Harmonics?: true
    Max angular momentum: 4

  Core potential: DEF2-TZVPPD
    Number of shells: 8
    Number of ECP primitives: 28
    Number of ECP core electrons: 120
    Max angular momentum: 3

  ==> DFT Potential <==

   => Composite Functional: MN15-D3BJ <= 

   MN15 Hybrid Meta-GGA Exchange-Correlation Functional

    H. S. Yu, X. He, S. L. Li, and D. G. Truhlar, Chem. Sci. 7, 5032-5051, 2016


    Deriv               =              1
    GGA                 =           TRUE
    Meta                =           TRUE

    Exchange Hybrid     =           TRUE
    MP2 Hybrid          =          FALSE

   => Exchange Functionals <=

    1.0000   XC_HYB_MGGA_X_MN15

   => Exact (HF) Exchange <=

    0.4400               HF 

   => Correlation Functionals <=

    1.0000   XC_MGGA_C_MN15

   => LibXC Density Thresholds  <==

    XC_MGGA_C_MN15:  1.00E-15 
    XC_HYB_MGGA_X_MN15:  1.00E-15 

   => Molecular Quadrature <=

    Radial Scheme          =       TREUTLER
    Pruning Scheme         =           NONE
    Nuclear Scheme         =       TREUTLER

    BS radius alpha        =              1
    Pruning alpha          =              1
    Radial Points          =             75
    Spherical Points       =            302
    Total Points           =          42538
    Total Blocks           =            414
    Max Points             =            255
    Max Functions          =            116
    Weights Tolerance      =       1.00E-15

   => Loading Basis Set <=

    Name: (DEF2-TZVPPD AUX)
    Role: JKFIT
    Keyword: DF_BASIS_SCF
    atoms 1-2 entry AU         line  8426 file /mnt/storage/home/zw18965/.conda/envs/p4env/share/psi4/basis/def2-universal-jkfit.gbs 

  ==> Integral Setup <==

  DFHelper Memory: AOs need 0.060 GiB; user supplied 83.523 GiB. Using in-core AOs.

  ==> MemDFJK: Density-Fitted J/K Matrices <==

    J tasked:                   Yes
    K tasked:                   Yes
    wK tasked:                   No
    OpenMP threads:              28
    Memory [MiB]:             85527
    Algorithm:                 Core
    Schwarz Cutoff:           1E-12
    Mask sparsity (%):       0.3735
    Fitting Condition:        1E-10

   => Auxiliary Basis Set <=

  Basis Set: (DEF2-TZVPPD AUX)
    Blend: DEF2-UNIVERSAL-JKFIT
    Number of shells: 102
    Number of basis functions: 494
    Number of Cartesian functions: 730
    Spherical Harmonics?: true
    Max angular momentum: 6

  Cached 100.0% of DFT collocation blocks in 0.296 [GiB].

  Minimum eigenvalue in the overlap matrix is 3.7000658953E-03.
  Reciprocal condition number of the overlap matrix is 8.8569748124E-04.
    Using symmetric orthogonalization.

  ==> Pre-Iterations <==

  SCF Guess: Superposition of Atomic Densities via on-the-fly atomic UHF (no occupation information).

   -------------------------
    Irrep   Nso     Nmo    
   -------------------------
     Ag        24      24 
     B1g        7       7 
     B2g       14      14 
     B3g       14      14 
     Au         7       7 
     B1u       24      24 
     B2u       14      14 
     B3u       14      14 
   -------------------------
    Total     118     118
   -------------------------

  ==> Iterations <==

                           Total Energy        Delta E     RMS |[F,P]|

   @DF-RKS iter SAD:  -270.47890205764071   -2.70479e+02   0.00000e+00 
   @DF-RKS iter   1:  -270.99638959694892   -5.17488e-01   7.59620e-03 DIIS
   @DF-RKS iter   2:  -270.95931839356956    3.70712e-02   1.16704e-02 DIIS
   @DF-RKS iter   3:  -271.04374440180709   -8.44260e-02   5.18753e-04 DIIS
   @DF-RKS iter   4:  -271.04412643025654   -3.82028e-04   2.15063e-04 DIIS
   @DF-RKS iter   5:  -271.04420786394934   -8.14337e-05   8.89913e-05 DIIS
   @DF-RKS iter   6:  -271.04423492624187   -2.70623e-05   2.18448e-05 DIIS
   @DF-RKS iter   7:  -271.04423821401457   -3.28777e-06   2.41676e-06 DIIS
   @DF-RKS iter   8:  -271.04423822768194   -1.36674e-08   3.47719e-07 DIIS
   @DF-RKS iter   9:  -271.04423822816125   -4.79304e-10   9.86711e-08 DIIS
   @DF-RKS iter  10:  -271.04423822817967   -1.84173e-11   1.51604e-08 DIIS
   @DF-RKS iter  11:  -271.04423822818035   -6.82121e-13   1.15722e-09 DIIS
  Energy and wave function converged.


  ==> Post-Iterations <==

   Electrons on quadrature grid:
      Ntotal   =   38.0000016290 ; deviation = 1.629e-06 

    Orbital Energies [Eh]
    ---------------------

    Doubly Occupied:                                                      

       1Ag    -4.105762     1B1u   -4.105025     2Ag    -2.321333  
       2B1u   -2.306847     1B3u   -2.306319     1B2u   -2.306319  
       1B2g   -2.305035     1B3g   -2.305035     3Ag    -0.412910  
       2B2u   -0.382413     2B3u   -0.382413     4Ag    -0.343644  
       1B1g   -0.343634     3B1u   -0.329208     1Au    -0.329198  
       2B3g   -0.314103     2B2g   -0.314103     4B1u   -0.309259  
       5Ag    -0.296875  

    Virtual:                                                              

       5B1u   -0.112113     3B2u   -0.003745     3B3u   -0.003745  
       6Ag     0.027889     3B2g    0.080458     3B3g    0.080458  
       6B1u    0.122399     7Ag     0.186503     8Ag     0.223351  
       4B2u    0.225720     4B3u    0.225720     7B1u    0.268370  
       4B3g    0.278037     4B2g    0.278037     9Ag     0.311396  
       2B1g    0.311401     5B3u    0.373422     5B2u    0.373422  
       8B1u    0.377977     9B1u    0.398136     2Au     0.398140  
       5B2g    0.492142     5B3g    0.492142    10Ag     0.498623  
      10B1u    0.629270    11Ag     0.881484     6B2u    0.963034  
       6B3u    0.963034    12Ag     1.065980     3B1g    1.065982  
       7B2u    1.110679     7B3u    1.110679     6B3g    1.119480  
       6B2g    1.119480    11B1u    1.122314     8B2u    1.136039  
       8B3u    1.136039     7B2g    1.156321     7B3g    1.156321  
      12B1u    1.219839     3Au     1.219844    13Ag     1.344035  
      13B1u    1.380489     8B3g    1.391816     8B2g    1.391816  
       9B2u    1.484089     9B3u    1.484089    14Ag     1.500322  
       4B1g    1.500340    15Ag     1.553111    14B1u    1.554725  
       4Au     1.554744     9B3g    1.711136     9B2g    1.711136  
      16Ag     2.004002    15B1u    2.005900    16B1u    2.494448  
      10B2u    3.457460    10B3u    3.457460    17Ag     3.462529  
       5B1g    3.462566    11B2u    3.516940    11B3u    3.516940  
      10B3g    3.535254    10B2g    3.535254    17B1u    3.595240  
       5Au     3.595284    18Ag     3.667383    11B3g    3.732985  
      11B2g    3.732985    18B1u    3.806769    19Ag     3.995136  
      12B2u    4.012173    12B3u    4.012173    20Ag     4.023554  
       6B1g    4.023589    13B3u    4.034792    13B2u    4.034792  
      12B2g    4.036701    12B3g    4.036701    19B1u    4.041383  
       6Au     4.041409     7B1g    4.042707    21Ag     4.042792  
       7Au     4.042796    20B1u    4.042881    13B3g    4.144796  
      13B2g    4.144796    21B1u    4.412600    14B2u   26.877271  
      14B3u   26.877271    22Ag    27.055352    14B3g   27.319721  
      14B2g   27.319721    22B1u   30.031929    23Ag    43.498532  
      23B1u   43.955445    24Ag   204.952813    24B1u  205.152667  

    Final Occupation by Irrep:
             Ag   B1g   B2g   B3g    Au   B1u   B2u   B3u 
    DOCC [     5,    1,    2,    2,    1,    4,    2,    2 ]

  @DF-RKS Final Energy:  -271.04423822818035

   => Energetics <=

    Nuclear Repulsion Energy =             77.0579484873311742
    One-Electron Energy =                -630.6524204552973742
    Two-Electron Energy =                 297.2719238076177817
    DFT Exchange-Correlation Energy =     -14.7216449578319235
    Empirical Dispersion Energy =          -0.0000451100000000
    VV10 Nonlocal Energy =                  0.0000000000000000
    Total Energy =                       -271.0442382281803475

Computation Completed


Properties will be evaluated at   0.000000,   0.000000,   0.000000 [a0]

Properties computed using the SCF density matrix

  Nuclear Dipole Moment: [e a0]
     X:     0.0000      Y:     0.0000      Z:     0.0000

  Electronic Dipole Moment: [e a0]
     X:     0.0000      Y:     0.0000      Z:     0.0000

  Dipole Moment: [e a0]
     X:     0.0000      Y:     0.0000      Z:     0.0000     Total:     0.0000

  Dipole Moment: [D]
     X:     0.0000      Y:     0.0000      Z:     0.0000     Total:     0.0000


*** tstop() called on compute490.bc4.acrc.priv at Fri Nov  5 07:21:22 2021
Module time:
	user time   =      57.61 seconds =       0.96 minutes
	system time =       2.48 seconds =       0.04 minutes
	total time  =          9 seconds =       0.15 minutes
Total time:
	user time   =      57.61 seconds =       0.96 minutes
	system time =       2.48 seconds =       0.04 minutes
	total time  =          9 seconds =       0.15 minutes

*** tstart() called on compute490.bc4.acrc.priv
*** at Fri Nov  5 07:21:22 2021


         ------------------------------------------------------------
                                   SCF GRAD                          
                          Rob Parrish, Justin Turney,                
                       Andy Simmonett, and Alex Sokolov              
         ------------------------------------------------------------

  ==> Geometry <==

    Molecular point group: d2h
    Full point group: D_inf_h

    Geometry (in Angstrom), charge = 0, multiplicity = 1:

       Center              X                  Y                   Z               Mass       
    ------------   -----------------  -----------------  -----------------  -----------------
         AU           0.000000000000     0.000000000000     1.239541000000   196.966568790000
         AU           0.000000000000     0.000000000000    -1.239541000000   196.966568790000

  Nuclear repulsion =   77.057948487331174

  ==> Basis Set <==

  Basis Set: DEF2-TZVPPD
    Blend: DEF2-TZVPPD
    Number of shells: 34
    Number of basis functions: 118
    Number of Cartesian functions: 148
    Spherical Harmonics?: true
    Max angular momentum: 4

  Core potential: DEF2-TZVPPD
    Number of shells: 8
    Number of ECP primitives: 28
    Number of ECP core electrons: 120
    Max angular momentum: 3

  ==> DFJKGrad: Density-Fitted SCF Gradients <==

    Gradient:                    1
    J tasked:                  Yes
    K tasked:                  Yes
    wK tasked:                  No
    OpenMP threads:             28
    Integrals threads:          28
    Memory [MiB]:            85830
    Schwarz Cutoff:          1E-12
    Fitting Condition:       1E-10

   => Auxiliary Basis Set <=

  Basis Set: (DEF2-TZVPPD AUX)
    Blend: DEF2-UNIVERSAL-JKFIT
    Number of shells: 102
    Number of basis functions: 494
    Number of Cartesian functions: 730
    Spherical Harmonics?: true
    Max angular momentum: 6

  ==> DFT Potential <==

   => Composite Functional: MN15-D3BJ <= 

   MN15 Hybrid Meta-GGA Exchange-Correlation Functional

    H. S. Yu, X. He, S. L. Li, and D. G. Truhlar, Chem. Sci. 7, 5032-5051, 2016


    Deriv               =              1
    GGA                 =           TRUE
    Meta                =           TRUE

    Exchange Hybrid     =           TRUE
    MP2 Hybrid          =          FALSE

   => Exchange Functionals <=

    1.0000   XC_HYB_MGGA_X_MN15

   => Exact (HF) Exchange <=

    0.4400               HF 

   => Correlation Functionals <=

    1.0000   XC_MGGA_C_MN15

   => LibXC Density Thresholds  <==

    XC_MGGA_C_MN15:  1.00E-15 
    XC_HYB_MGGA_X_MN15:  1.00E-15 

   => Molecular Quadrature <=

    Radial Scheme          =       TREUTLER
    Pruning Scheme         =           NONE
    Nuclear Scheme         =       TREUTLER

    BS radius alpha        =              1
    Pruning alpha          =              1
    Radial Points          =             75
    Spherical Points       =            302
    Total Points           =          42538
    Total Blocks           =            414
    Max Points             =            255
    Max Functions          =            116
    Weights Tolerance      =       1.00E-15


  -Total Gradient:
     Atom            X                  Y                   Z
    ------   -----------------  -----------------  -----------------
       1        0.000000000000     0.000000000000    -0.182335965382
       2        0.000000000000     0.000000000000     0.182335965382


*** tstop() called on compute490.bc4.acrc.priv at Fri Nov  5 07:21:30 2021
Module time:
	user time   =      40.82 seconds =       0.68 minutes
	system time =       5.82 seconds =       0.10 minutes
	total time  =          8 seconds =       0.13 minutes
Total time:
	user time   =      99.68 seconds =       1.66 minutes
	system time =       8.37 seconds =       0.14 minutes
	total time  =         17 seconds =       0.28 minutes


  ==> Adding ECP gradient terms (computed numerically) <==

  -ECP Gradient:
     Atom            X                  Y                   Z
    ------   -----------------  -----------------  -----------------
       1        0.000000000000     0.000000000000     0.179389652851
       2        0.000000000000     0.000000000000    -0.179389652851


  -Total Gradient:
     Atom            X                  Y                   Z
    ------   -----------------  -----------------  -----------------
       1        0.000000000000     0.000000000000    -0.002946312531
       2        0.000000000000     0.000000000000     0.002946312531


			-----------------------------------------
			 OPTKING 2.0: for geometry optimizations 
			  - R.A. King,  Bethel University        
			-----------------------------------------
	At level 1: Red. Int., RFO, no backsteps, dynamic trust

	Internal coordinates to be generated automatically.
	Detected frag 1 with atoms:  1 2
	---Fragment 1 Bond Connectivity---
	 1 : 2
	 2 : 1

	---Fragment 1 Geometry and Gradient---
	 AU          0.0000000000        0.0000000000        2.3423930113
	 AU          0.0000000000        0.0000000000       -2.3423930113
	             0.0000000000        0.0000000000       -0.0029463125
	             0.0000000000        0.0000000000        0.0029463125

	Previous optimization step data not found.  Starting new optimization.

	---Fragment 1 Intrafragment Coordinates---
	 - Coordinate -           - BOHR/RAD -       - ANG/DEG -
	 R(1,2)           =         4.684786	       2.479082

	Current energy   :      -271.0442382282

	Generating empirical Hessian (Schlegel '84) for each fragment.
	Taking RFO optimization step.
	Going to follow RFO solution 1.
	Using RFO vector 1.
	Norm of target step-size    0.03042
	Projected energy change by RFO approximation:         0.0003726648

	Back-transformation to cartesian coordinates...
	Successfully converged to displaced geometry.

	--- Internal Coordinate Step in ANG or DEG, aJ/ANG or AJ/DEG ---
	 ---------------------------------------------------------------------------
	   Coordinate                Previous        Force       Change         New 
	   ----------                --------       ------       ------       ------
	    1 R(1,2)          =      2.479082     0.024274     0.016097     2.495179
	 ---------------------------------------------------------------------------
	Successfully symmetrized geometry.

  ==> Convergence Check <==

  Measures of convergence in internal coordinates in au.
  Criteria marked as inactive (o), active & met (*), and active & unmet ( ).
  --------------------------------------------------------------------------------------------- ~
   Step     Total Energy     Delta E     MAX Force     RMS Force      MAX Disp      RMS Disp    ~
  --------------------------------------------------------------------------------------------- ~
    Convergence Criteria    1.00e-06 *    3.00e-04 *             o    1.20e-03 *             o  ~
  --------------------------------------------------------------------------------------------- ~
      1    -271.04423823   -2.71e+02      2.95e-03      2.95e-03 o    3.04e-02      3.04e-02 o  ~
  ---------------------------------------------------------------------------------------------

	Writing optimization data to binary file.
	Structure for next step:
	Cartesian Geometry (in Angstrom)
	   AU     0.0000000000   0.0000000000   1.2475892824
	   AU     0.0000000000   0.0000000000  -1.2475892824
			--------------------------
			 OPTKING Finished Execution 
			--------------------------

    Structure for next step:
    Molecular point group: d2h
    Full point group: D_inf_h

    Geometry (in Angstrom), charge = 0, multiplicity = 1:

    AU           0.000000000000     0.000000000000     1.247589287258
    AU           0.000000000000     0.000000000000    -1.247589287258


Scratch directory: /tmp/
gradient() will perform analytic gradient computation.

*** tstart() called on compute490.bc4.acrc.priv
*** at Fri Nov  5 07:22:35 2021

   => Loading Basis Set <=

    Name: DEF2-TZVPPD
    Role: ORBITAL
    Keyword: BASIS
    atoms 1-2 entry AU         line  2995 (ECP: line  4084) file /mnt/storage/home/zw18965/.conda/envs/p4env/share/psi4/basis/def2-tzvppd.gbs 

    !!!  WARNING: ECP capability is in beta. Please check occupations closely.  !!!

   => MN15-D3(BJ): Empirical Dispersion <=

    Grimme's -D3 (BJ-damping) Dispersion Correction
    Grimme S.; Ehrlich S.; Goerigk L. (2011), J. Comput. Chem., 32: 1456
    Parametrisation from:    L. Goerigk, A. Hansen, C. Bauer, S. Ehrlich, A. Najibi, S. Grimme, Phys. Chem. Chem. Phys. 19, 32184-32215, 2017

        s6 =       1.000000
        s8 =       2.097100
        a1 =       0.786200
        a2 =       7.592300


         ---------------------------------------------------------
                                   SCF
               by Justin Turney, Rob Parrish, Andy Simmonett
                          and Daniel G. A. Smith
                              RKS Reference
                       28 Threads, 114440 MiB Core
         ---------------------------------------------------------

  ==> Geometry <==

    Molecular point group: d2h
    Full point group: D_inf_h

    Geometry (in Angstrom), charge = 0, multiplicity = 1:

       Center              X                  Y                   Z               Mass       
    ------------   -----------------  -----------------  -----------------  -----------------
         AU           0.000000000000     0.000000000000     1.247589287258   196.966568790000
         AU           0.000000000000     0.000000000000    -1.247589287258   196.966568790000

  Running in d2h symmetry.

  Rotational constants: A = ************  B =      0.02749  C =      0.02749 [cm^-1]
  Rotational constants: A = ************  B =    824.23568  C =    824.23568 [MHz]
  Nuclear repulsion =   76.560842178994690

  Charge       = 0
  Multiplicity = 1
  Electrons    = 38
  Nalpha       = 19
  Nbeta        = 19

  ==> Algorithm <==

  SCF Algorithm Type is DF.
  DIIS enabled.
  MOM disabled.
  Fractional occupation disabled.
  Guess Type is READ.
  Energy threshold   = 1.00e-08
  Density threshold  = 1.00e-08
  Integral threshold = 1.00e-12

  ==> Primary Basis <==

  Basis Set: DEF2-TZVPPD
    Blend: DEF2-TZVPPD
    Number of shells: 34
    Number of basis functions: 118
    Number of Cartesian functions: 148
    Spherical Harmonics?: true
    Max angular momentum: 4

  Core potential: DEF2-TZVPPD
    Number of shells: 8
    Number of ECP primitives: 28
    Number of ECP core electrons: 120
    Max angular momentum: 3

  ==> DFT Potential <==

   => Composite Functional: MN15-D3BJ <= 

   MN15 Hybrid Meta-GGA Exchange-Correlation Functional

    H. S. Yu, X. He, S. L. Li, and D. G. Truhlar, Chem. Sci. 7, 5032-5051, 2016


    Deriv               =              1
    GGA                 =           TRUE
    Meta                =           TRUE

    Exchange Hybrid     =           TRUE
    MP2 Hybrid          =          FALSE

   => Exchange Functionals <=

    1.0000   XC_HYB_MGGA_X_MN15

   => Exact (HF) Exchange <=

    0.4400               HF 

   => Correlation Functionals <=

    1.0000   XC_MGGA_C_MN15

   => LibXC Density Thresholds  <==

    XC_MGGA_C_MN15:  1.00E-15 
    XC_HYB_MGGA_X_MN15:  1.00E-15 

   => Molecular Quadrature <=

    Radial Scheme          =       TREUTLER
    Pruning Scheme         =           NONE
    Nuclear Scheme         =       TREUTLER

    BS radius alpha        =              1
    Pruning alpha          =              1
    Radial Points          =             75
    Spherical Points       =            302
    Total Points           =          42556
    Total Blocks           =            416
    Max Points             =            255
    Max Functions          =            116
    Weights Tolerance      =       1.00E-15

   => Loading Basis Set <=

    Name: (DEF2-TZVPPD AUX)
    Role: JKFIT
    Keyword: DF_BASIS_SCF
    atoms 1-2 entry AU         line  8426 file /mnt/storage/home/zw18965/.conda/envs/p4env/share/psi4/basis/def2-universal-jkfit.gbs 

   => Loading Basis Set <=

    Name: DEF2-TZVPPD
    Role: ORBITAL
    Keyword: BASIS
    atoms 1-2 entry AU         line  2995 (ECP: line  4084) file /mnt/storage/home/zw18965/.conda/envs/p4env/share/psi4/basis/def2-tzvppd.gbs 

    !!!  WARNING: ECP capability is in beta. Please check occupations closely.  !!!

  Reading orbitals from file /tmp/Au02N0.default.16022.180.npy, no projection.

  ==> Integral Setup <==

  DFHelper Memory: AOs need 0.060 GiB; user supplied 83.524 GiB. Using in-core AOs.

  ==> MemDFJK: Density-Fitted J/K Matrices <==

    J tasked:                   Yes
    K tasked:                   Yes
    wK tasked:                   No
    OpenMP threads:              28
    Memory [MiB]:             85528
    Algorithm:                 Core
    Schwarz Cutoff:           1E-12
    Mask sparsity (%):       0.4309
    Fitting Condition:        1E-10

   => Auxiliary Basis Set <=

  Basis Set: (DEF2-TZVPPD AUX)
    Blend: DEF2-UNIVERSAL-JKFIT
    Number of shells: 102
    Number of basis functions: 494
    Number of Cartesian functions: 730
    Spherical Harmonics?: true
    Max angular momentum: 6

  Cached 100.0% of DFT collocation blocks in 0.295 [GiB].

  Minimum eigenvalue in the overlap matrix is 3.8124367323E-03.
  Reciprocal condition number of the overlap matrix is 9.1515988201E-04.
    Using symmetric orthogonalization.

  ==> Pre-Iterations <==

  SCF Guess: Orbitals guess was supplied from a previous computation.

   -------------------------------------------------------
    Irrep   Nso     Nmo     Nalpha   Nbeta   Ndocc  Nsocc
   -------------------------------------------------------
     Ag        24      24       5       5       5       0
     B1g        7       7       1       1       1       0
     B2g       14      14       2       2       2       0
     B3g       14      14       2       2       2       0
     Au         7       7       1       1       1       0
     B1u       24      24       4       4       4       0
     B2u       14      14       2       2       2       0
     B3u       14      14       2       2       2       0
   -------------------------------------------------------
    Total     118     118      19      19      19       0
   -------------------------------------------------------

  ==> Iterations <==

                           Total Energy        Delta E     RMS |[F,P]|

   @DF-RKS iter   0:  -271.04482450087897   -2.71045e+02   8.85417e-04 
   @DF-RKS iter   1:  -271.04426289569761    5.61605e-04   4.55348e-05 DIIS
   @DF-RKS iter   2:  -271.04426308955675   -1.93859e-07   5.50090e-05 DIIS
   @DF-RKS iter   3:  -271.04426502992789   -1.94037e-06   5.95926e-06 DIIS
   @DF-RKS iter   4:  -271.04426511333219   -8.34043e-08   2.48971e-06 DIIS
   @DF-RKS iter   5:  -271.04426513863325   -2.53011e-08   2.11565e-06 DIIS
   @DF-RKS iter   6:  -271.04426514549732   -6.86407e-09   3.27953e-07 DIIS
   @DF-RKS iter   7:  -271.04426514578836   -2.91038e-10   3.62201e-08 DIIS
   @DF-RKS iter   8:  -271.04426514579166   -3.29692e-12   3.23111e-09 DIIS
  Energy and wave function converged.


  ==> Post-Iterations <==

   Electrons on quadrature grid:
      Ntotal   =   38.0000004133 ; deviation = 4.133e-07 

    Orbital Energies [Eh]
    ---------------------

    Doubly Occupied:                                                      

       1Ag    -4.105496     1B1u   -4.104824     2Ag    -2.320468  
       2B1u   -2.306827     1B3u   -2.306120     1B2u   -2.306120  
       1B2g   -2.304921     1B3g   -2.304921     3Ag    -0.410826  
       2B3u   -0.380963     2B2u   -0.380963     4Ag    -0.343301  
       1B1g   -0.343291     3B1u   -0.329381     1Au    -0.329371  
       2B2g   -0.314794     2B3g   -0.314794     4B1u   -0.310000  
       5Ag    -0.296294  

    Virtual:                                                              

       5B1u   -0.112887     3B3u   -0.003640     3B2u   -0.003640  
       6Ag     0.027375     3B2g    0.079893     3B3g    0.079893  
       6B1u    0.122183     7Ag     0.186396     8Ag     0.223148  
       4B2u    0.225850     4B3u    0.225850     7B1u    0.268388  
       4B3g    0.277519     4B2g    0.277519     9Ag     0.311383  
       2B1g    0.311388     5B2u    0.372637     5B3u    0.372637  
       8B1u    0.375700     9B1u    0.397779     2Au     0.397783  
       5B3g    0.491679     5B2g    0.491679    10Ag     0.498406  
      10B1u    0.627239    11Ag     0.881312     6B2u    0.966297  
       6B3u    0.966297    12Ag     1.068731     3B1g    1.068734  
       7B2u    1.109264     7B3u    1.109264     6B3g    1.118722  
       6B2g    1.118722    11B1u    1.122225     8B3u    1.136591  
       8B2u    1.136591     7B2g    1.155822     7B3g    1.155822  
      12B1u    1.216909     3Au     1.216915    13Ag     1.342333  
      13B1u    1.378667     8B3g    1.388710     8B2g    1.388710  
       9B3u    1.484410     9B2u    1.484410    14Ag     1.500982  
       4B1g    1.500998    15Ag     1.550670    14B1u    1.554071  
       4Au     1.554089     9B2g    1.704324     9B3g    1.704324  
      15B1u    1.992909    16Ag     2.000161    16B1u    2.485515  
      10B3u    3.455056    10B2u    3.455056    17Ag     3.464385  
       5B1g    3.464423    11B2u    3.517525    11B3u    3.517525  
      10B3g    3.534900    10B2g    3.534900    17B1u    3.593049  
       5Au     3.593094    18Ag     3.657593    11B2g    3.732629  
      11B3g    3.732629    18B1u    3.811281    19Ag     3.999127  
      12B2u    4.014300    12B3u    4.014300    20Ag     4.024522  
       6B1g    4.024550    13B2u    4.035117    13B3u    4.035117  
      12B3g    4.036789    12B2g    4.036789    19B1u    4.040329  
       6Au     4.040350     7B1g    4.042760    21Ag     4.042837  
       7Au     4.042837    20B1u    4.042914    13B3g    4.134391  
      13B2g    4.134391    21B1u    4.393023    14B3u   26.880409  
      14B2u   26.880409    22Ag    27.034495    14B2g   27.309148  
      14B3g   27.309148    22B1u   29.896939    23Ag    43.495660  
      23B1u   43.946890    24Ag   204.951619    24B1u  205.149064  

    Final Occupation by Irrep:
             Ag   B1g   B2g   B3g    Au   B1u   B2u   B3u 
    DOCC [     5,    1,    2,    2,    1,    4,    2,    2 ]

  @DF-RKS Final Energy:  -271.04426514579166

   => Energetics <=

    Nuclear Repulsion Energy =             76.5608421789946902
    One-Electron Energy =                -629.6716279624217805
    Two-Electron Energy =                 296.7863395801273896
    DFT Exchange-Correlation Energy =     -14.7197738224919146
    Empirical Dispersion Energy =          -0.0000451200000000
    VV10 Nonlocal Energy =                  0.0000000000000000
    Total Energy =                       -271.0442651457915986

Computation Completed


Properties will be evaluated at   0.000000,   0.000000,   0.000000 [a0]

Properties computed using the SCF density matrix

  Nuclear Dipole Moment: [e a0]
     X:     0.0000      Y:     0.0000      Z:     0.0000

  Electronic Dipole Moment: [e a0]
     X:     0.0000      Y:     0.0000      Z:     0.0000

  Dipole Moment: [e a0]
     X:     0.0000      Y:     0.0000      Z:     0.0000     Total:     0.0000

  Dipole Moment: [D]
     X:     0.0000      Y:     0.0000      Z:     0.0000     Total:     0.0000


*** tstop() called on compute490.bc4.acrc.priv at Fri Nov  5 07:22:39 2021
Module time:
	user time   =      44.49 seconds =       0.74 minutes
	system time =       1.38 seconds =       0.02 minutes
	total time  =          4 seconds =       0.07 minutes
Total time:
	user time   =     483.52 seconds =       8.06 minutes
	system time =      15.29 seconds =       0.25 minutes
	total time  =         86 seconds =       1.43 minutes

*** tstart() called on compute490.bc4.acrc.priv
*** at Fri Nov  5 07:22:39 2021


         ------------------------------------------------------------
                                   SCF GRAD                          
                          Rob Parrish, Justin Turney,                
                       Andy Simmonett, and Alex Sokolov              
         ------------------------------------------------------------

  ==> Geometry <==

    Molecular point group: d2h
    Full point group: D_inf_h

    Geometry (in Angstrom), charge = 0, multiplicity = 1:

       Center              X                  Y                   Z               Mass       
    ------------   -----------------  -----------------  -----------------  -----------------
         AU           0.000000000000     0.000000000000     1.247589287258   196.966568790000
         AU           0.000000000000     0.000000000000    -1.247589287258   196.966568790000

  Nuclear repulsion =   76.560842178994690

  ==> Basis Set <==

  Basis Set: DEF2-TZVPPD
    Blend: DEF2-TZVPPD
    Number of shells: 34
    Number of basis functions: 118
    Number of Cartesian functions: 148
    Spherical Harmonics?: true
    Max angular momentum: 4

  Core potential: DEF2-TZVPPD
    Number of shells: 8
    Number of ECP primitives: 28
    Number of ECP core electrons: 120
    Max angular momentum: 3

  ==> DFJKGrad: Density-Fitted SCF Gradients <==

    Gradient:                    1
    J tasked:                  Yes
    K tasked:                  Yes
    wK tasked:                  No
    OpenMP threads:             28
    Integrals threads:          28
    Memory [MiB]:            85830
    Schwarz Cutoff:          1E-12
    Fitting Condition:       1E-10

   => Auxiliary Basis Set <=

  Basis Set: (DEF2-TZVPPD AUX)
    Blend: DEF2-UNIVERSAL-JKFIT
    Number of shells: 102
    Number of basis functions: 494
    Number of Cartesian functions: 730
    Spherical Harmonics?: true
    Max angular momentum: 6

  ==> DFT Potential <==

   => Composite Functional: MN15-D3BJ <= 

   MN15 Hybrid Meta-GGA Exchange-Correlation Functional

    H. S. Yu, X. He, S. L. Li, and D. G. Truhlar, Chem. Sci. 7, 5032-5051, 2016


    Deriv               =              1
    GGA                 =           TRUE
    Meta                =           TRUE

    Exchange Hybrid     =           TRUE
    MP2 Hybrid          =          FALSE

   => Exchange Functionals <=

    1.0000   XC_HYB_MGGA_X_MN15

   => Exact (HF) Exchange <=

    0.4400               HF 

   => Correlation Functionals <=

    1.0000   XC_MGGA_C_MN15

   => LibXC Density Thresholds  <==

    XC_MGGA_C_MN15:  1.00E-15 
    XC_HYB_MGGA_X_MN15:  1.00E-15 

   => Molecular Quadrature <=

    Radial Scheme          =       TREUTLER
    Pruning Scheme         =           NONE
    Nuclear Scheme         =       TREUTLER

    BS radius alpha        =              1
    Pruning alpha          =              1
    Radial Points          =             75
    Spherical Points       =            302
    Total Points           =          42556
    Total Blocks           =            416
    Max Points             =            255
    Max Functions          =            116
    Weights Tolerance      =       1.00E-15


  -Total Gradient:
     Atom            X                  Y                   Z
    ------   -----------------  -----------------  -----------------
       1       -0.000000000000    -0.000000000000    -0.172612102065
       2       -0.000000000000    -0.000000000000     0.172612102065


*** tstop() called on compute490.bc4.acrc.priv at Fri Nov  5 07:22:45 2021
Module time:
	user time   =      38.27 seconds =       0.64 minutes
	system time =       1.63 seconds =       0.03 minutes
	total time  =          6 seconds =       0.10 minutes
Total time:
	user time   =     524.41 seconds =       8.74 minutes
	system time =      17.04 seconds =       0.28 minutes
	total time  =         92 seconds =       1.53 minutes


  ==> Adding ECP gradient terms (computed numerically) <==

  -ECP Gradient:
     Atom            X                  Y                   Z
    ------   -----------------  -----------------  -----------------
       1       -0.000000000000    -0.000000000000     0.173629212969
       2       -0.000000000000    -0.000000000000    -0.173629212969


  -Total Gradient:
     Atom            X                  Y                   Z
    ------   -----------------  -----------------  -----------------
       1       -0.000000000000    -0.000000000000     0.001017110903
       2       -0.000000000000    -0.000000000000    -0.001017110903


			-----------------------------------------
			 OPTKING 2.0: for geometry optimizations 
			  - R.A. King,  Bethel University        
			-----------------------------------------
	At level 1: Red. Int., RFO, no backsteps, dynamic trust

	Previous internal coordinate definitions found.
	---Fragment 1 Geometry and Gradient---
	 AU          0.0000000000        0.0000000000        2.3576020700
	 AU          0.0000000000        0.0000000000       -2.3576020700
	            -0.0000000000       -0.0000000000        0.0010171109
	            -0.0000000000       -0.0000000000       -0.0010171109

	---Fragment 1 Intrafragment Coordinates---
	 - Coordinate -           - BOHR/RAD -       - ANG/DEG -
	 R(1,2)           =         4.715204	       2.495179

	Current energy   :      -271.0442651458

	Energy change for the previous step:
		Projected    :         0.0003726648
		Actual       :        -0.0000269176

	Performing BFGS update.
	Previous computed or guess Hessian on step 1.
	Steps to be used in Hessian update: 1
	Taking RFO optimization step.
	Going to follow RFO solution 1.
	Using RFO vector 1.
	Norm of target step-size    0.00781
	Projected energy change by RFO approximation:         0.0000225228

	Back-transformation to cartesian coordinates...
	Successfully converged to displaced geometry.

	--- Internal Coordinate Step in ANG or DEG, aJ/ANG or AJ/DEG ---
	 ---------------------------------------------------------------------------
	   Coordinate                Previous        Force       Change         New 
	   ----------                --------       ------       ------       ------
	    1 R(1,2)          =      2.495179    -0.008380    -0.004131     2.491048
	 ---------------------------------------------------------------------------
	Successfully symmetrized geometry.

  ==> Convergence Check <==

  Measures of convergence in internal coordinates in au.
  Criteria marked as inactive (o), active & met (*), and active & unmet ( ).
  ---------------------------------------------------------------------------------------------
   Step     Total Energy     Delta E     MAX Force     RMS Force      MAX Disp      RMS Disp   
  ---------------------------------------------------------------------------------------------
    Convergence Criteria    1.00e-06 *    3.00e-04 *             o    1.20e-03 *             o
  ---------------------------------------------------------------------------------------------
      2    -271.04426515   -2.69e-05      1.02e-03      1.02e-03 o    7.81e-03      7.81e-03 o  ~
  ---------------------------------------------------------------------------------------------

	Writing optimization data to binary file.
	Structure for next step:
	Cartesian Geometry (in Angstrom)
	   AU     0.0000000000   0.0000000000   1.2455240218
	   AU     0.0000000000   0.0000000000  -1.2455240218
			--------------------------
			 OPTKING Finished Execution 
			--------------------------

    Structure for next step:
    Molecular point group: d2h
    Full point group: D_inf_h

    Geometry (in Angstrom), charge = 0, multiplicity = 1:

    AU           0.000000000000     0.000000000000     1.245524026729
    AU           0.000000000000     0.000000000000    -1.245524026729


Scratch directory: /tmp/
gradient() will perform analytic gradient computation.

*** tstart() called on compute490.bc4.acrc.priv
*** at Fri Nov  5 07:23:48 2021

   => Loading Basis Set <=

    Name: DEF2-TZVPPD
    Role: ORBITAL
    Keyword: BASIS
    atoms 1-2 entry AU         line  2995 (ECP: line  4084) file /mnt/storage/home/zw18965/.conda/envs/p4env/share/psi4/basis/def2-tzvppd.gbs 

    !!!  WARNING: ECP capability is in beta. Please check occupations closely.  !!!

   => MN15-D3(BJ): Empirical Dispersion <=

    Grimme's -D3 (BJ-damping) Dispersion Correction
    Grimme S.; Ehrlich S.; Goerigk L. (2011), J. Comput. Chem., 32: 1456
    Parametrisation from:    L. Goerigk, A. Hansen, C. Bauer, S. Ehrlich, A. Najibi, S. Grimme, Phys. Chem. Chem. Phys. 19, 32184-32215, 2017

        s6 =       1.000000
        s8 =       2.097100
        a1 =       0.786200
        a2 =       7.592300


         ---------------------------------------------------------
                                   SCF
               by Justin Turney, Rob Parrish, Andy Simmonett
                          and Daniel G. A. Smith
                              RKS Reference
                       28 Threads, 114440 MiB Core
         ---------------------------------------------------------

  ==> Geometry <==

    Molecular point group: d2h
    Full point group: D_inf_h

    Geometry (in Angstrom), charge = 0, multiplicity = 1:

       Center              X                  Y                   Z               Mass       
    ------------   -----------------  -----------------  -----------------  -----------------
         AU           0.000000000000     0.000000000000     1.245524026729   196.966568790000
         AU           0.000000000000     0.000000000000    -1.245524026729   196.966568790000

  Running in d2h symmetry.

  Rotational constants: A = ************  B =      0.02758  C =      0.02758 [cm^-1]
  Rotational constants: A = ************  B =    826.97135  C =    826.97135 [MHz]
  Nuclear repulsion =   76.687791223742266

  Charge       = 0
  Multiplicity = 1
  Electrons    = 38
  Nalpha       = 19
  Nbeta        = 19

  ==> Algorithm <==

  SCF Algorithm Type is DF.
  DIIS enabled.
  MOM disabled.
  Fractional occupation disabled.
  Guess Type is READ.
  Energy threshold   = 1.00e-08
  Density threshold  = 1.00e-08
  Integral threshold = 1.00e-12

  ==> Primary Basis <==

  Basis Set: DEF2-TZVPPD
    Blend: DEF2-TZVPPD
    Number of shells: 34
    Number of basis functions: 118
    Number of Cartesian functions: 148
    Spherical Harmonics?: true
    Max angular momentum: 4

  Core potential: DEF2-TZVPPD
    Number of shells: 8
    Number of ECP primitives: 28
    Number of ECP core electrons: 120
    Max angular momentum: 3

  ==> DFT Potential <==

   => Composite Functional: MN15-D3BJ <= 

   MN15 Hybrid Meta-GGA Exchange-Correlation Functional

    H. S. Yu, X. He, S. L. Li, and D. G. Truhlar, Chem. Sci. 7, 5032-5051, 2016


    Deriv               =              1
    GGA                 =           TRUE
    Meta                =           TRUE

    Exchange Hybrid     =           TRUE
    MP2 Hybrid          =          FALSE

   => Exchange Functionals <=

    1.0000   XC_HYB_MGGA_X_MN15

   => Exact (HF) Exchange <=

    0.4400               HF 

   => Correlation Functionals <=

    1.0000   XC_MGGA_C_MN15

   => LibXC Density Thresholds  <==

    XC_MGGA_C_MN15:  1.00E-15 
    XC_HYB_MGGA_X_MN15:  1.00E-15 

   => Molecular Quadrature <=

    Radial Scheme          =       TREUTLER
    Pruning Scheme         =           NONE
    Nuclear Scheme         =       TREUTLER

    BS radius alpha        =              1
    Pruning alpha          =              1
    Radial Points          =             75
    Spherical Points       =            302
    Total Points           =          42538
    Total Blocks           =            414
    Max Points             =            255
    Max Functions          =            116
    Weights Tolerance      =       1.00E-15

   => Loading Basis Set <=

    Name: (DEF2-TZVPPD AUX)
    Role: JKFIT
    Keyword: DF_BASIS_SCF
    atoms 1-2 entry AU         line  8426 file /mnt/storage/home/zw18965/.conda/envs/p4env/share/psi4/basis/def2-universal-jkfit.gbs 

   => Loading Basis Set <=

    Name: DEF2-TZVPPD
    Role: ORBITAL
    Keyword: BASIS
    atoms 1-2 entry AU         line  2995 (ECP: line  4084) file /mnt/storage/home/zw18965/.conda/envs/p4env/share/psi4/basis/def2-tzvppd.gbs 

    !!!  WARNING: ECP capability is in beta. Please check occupations closely.  !!!

  Reading orbitals from file /tmp/Au02N0.default.16022.180.npy, no projection.

  ==> Integral Setup <==

  DFHelper Memory: AOs need 0.060 GiB; user supplied 83.524 GiB. Using in-core AOs.

  ==> MemDFJK: Density-Fitted J/K Matrices <==

    J tasked:                   Yes
    K tasked:                   Yes
    wK tasked:                   No
    OpenMP threads:              28
    Memory [MiB]:             85528
    Algorithm:                 Core
    Schwarz Cutoff:           1E-12
    Mask sparsity (%):       0.4309
    Fitting Condition:        1E-10

   => Auxiliary Basis Set <=

  Basis Set: (DEF2-TZVPPD AUX)
    Blend: DEF2-UNIVERSAL-JKFIT
    Number of shells: 102
    Number of basis functions: 494
    Number of Cartesian functions: 730
    Spherical Harmonics?: true
    Max angular momentum: 6

  Cached 100.0% of DFT collocation blocks in 0.295 [GiB].

  Minimum eigenvalue in the overlap matrix is 3.7833721559E-03.
  Reciprocal condition number of the overlap matrix is 9.0753007085E-04.
    Using symmetric orthogonalization.

  ==> Pre-Iterations <==

  SCF Guess: Orbitals guess was supplied from a previous computation.

   -------------------------------------------------------
    Irrep   Nso     Nmo     Nalpha   Nbeta   Ndocc  Nsocc
   -------------------------------------------------------
     Ag        24      24       5       5       5       0
     B1g        7       7       1       1       1       0
     B2g       14      14       2       2       2       0
     B3g       14      14       2       2       2       0
     Au         7       7       1       1       1       0
     B1u       24      24       4       4       4       0
     B2u       14      14       2       2       2       0
     B3u       14      14       2       2       2       0
   -------------------------------------------------------
    Total     118     118      19      19      19       0
   -------------------------------------------------------

  ==> Iterations <==

                           Total Energy        Delta E     RMS |[F,P]|

   @DF-RKS iter   0:  -271.04417760792848   -2.71044e+02   2.26230e-04 
   @DF-RKS iter   1:  -271.04426944968594   -9.18418e-05   1.17116e-05 DIIS
   @DF-RKS iter   2:  -271.04426945767864   -7.99270e-09   1.44166e-05 DIIS
   @DF-RKS iter   3:  -271.04426959102784   -1.33349e-07   1.45262e-06 DIIS
   @DF-RKS iter   4:  -271.04426959633400   -5.30616e-09   6.19933e-07 DIIS
   @DF-RKS iter   5:  -271.04426959794739   -1.61339e-09   5.31526e-07 DIIS
   @DF-RKS iter   6:  -271.04426959836888   -4.21494e-10   8.69363e-08 DIIS
   @DF-RKS iter   7:  -271.04426959838895   -2.00657e-11   9.31469e-09 DIIS
  Energy and wave function converged.


  ==> Post-Iterations <==

   Electrons on quadrature grid:
      Ntotal   =   38.0000007304 ; deviation = 7.304e-07 

    Orbital Energies [Eh]
    ---------------------

    Doubly Occupied:                                                      

       1Ag    -4.105563     1B1u   -4.104874     2Ag    -2.320685  
       2B1u   -2.306832     1B2u   -2.306170     1B3u   -2.306170  
       1B3g   -2.304949     1B2g   -2.304949     3Ag    -0.411355  
       2B2u   -0.381329     2B3u   -0.381329     4Ag    -0.343387  
       1B1g   -0.343377     3B1u   -0.329337     1Au    -0.329326  
       2B3g   -0.314618     2B2g   -0.314618     4B1u   -0.309811  
       5Ag    -0.296442  

    Virtual:                                                              

       5B1u   -0.112688     3B2u   -0.003667     3B3u   -0.003667  
       6Ag     0.027506     3B3g    0.080038     3B2g    0.080038  
       6B1u    0.122236     7Ag     0.186423     8Ag     0.223200  
       4B3u    0.225817     4B2u    0.225817     7B1u    0.268380  
       4B2g    0.277651     4B3g    0.277651     9Ag     0.311386  
       2B1g    0.311391     5B2u    0.372841     5B3u    0.372841  
       8B1u    0.376273     9B1u    0.397871     2Au     0.397875  
       5B3g    0.491796     5B2g    0.491796    10Ag     0.498466  
      10B1u    0.627727    11Ag     0.881337     6B2u    0.965448  
       6B3u    0.965448    12Ag     1.068032     3B1g    1.068035  
       7B2u    1.109622     7B3u    1.109622     6B3g    1.118917  
       6B2g    1.118917    11B1u    1.122246     8B3u    1.136453  
       8B2u    1.136453     7B2g    1.155949     7B3g    1.155949  
      12B1u    1.217655     3Au     1.217661    13Ag     1.342794  
      13B1u    1.379117     8B2g    1.389516     8B3g    1.389516  
       9B2u    1.484321     9B3u    1.484321    14Ag     1.500814  
       4B1g    1.500831    15Ag     1.551284    14B1u    1.554237  
       4Au     1.554255     9B3g    1.706049     9B2g    1.706049  
      15B1u    1.996215    16Ag     2.001129    16B1u    2.487816  
      10B3u    3.455647    10B2u    3.455647    17Ag     3.463908  
       5B1g    3.463946    11B3u    3.517378    11B2u    3.517378  
      10B2g    3.534990    10B3g    3.534990    17B1u    3.593613  
       5Au     3.593657    18Ag     3.660072    11B2g    3.732753  
      11B3g    3.732753    18B1u    3.810142    19Ag     3.998134  
      12B2u    4.013775    12B3u    4.013775    20Ag     4.024282  
       6B1g    4.024311    13B3u    4.035036    13B2u    4.035036  
      12B2g    4.036767    12B3g    4.036767    19B1u    4.040587  
       6Au     4.040608     7B1g    4.042748    21Ag     4.042827  
       7Au     4.042828    20B1u    4.042907    13B3g    4.136993  
      13B2g    4.136993    21B1u    4.398005    14B2u   26.879586  
      14B3u   26.879586    22Ag    27.039574    14B3g   27.311822  
      14B2g   27.311822    22B1u   29.931114    23Ag    43.496387  
      23B1u   43.949100    24Ag   204.951921    24B1u  205.149996  

    Final Occupation by Irrep:
             Ag   B1g   B2g   B3g    Au   B1u   B2u   B3u 
    DOCC [     5,    1,    2,    2,    1,    4,    2,    2 ]

  @DF-RKS Final Energy:  -271.04426959838895

   => Energetics <=

    Nuclear Repulsion Energy =             76.6877912237422663
    One-Electron Energy =                -629.9221739253584929
    Two-Electron Energy =                 296.9104059510905245
    DFT Exchange-Correlation Energy =     -14.7202477378631649
    Empirical Dispersion Energy =          -0.0000451100000000
    VV10 Nonlocal Energy =                  0.0000000000000000
    Total Energy =                       -271.0442695983888939

Computation Completed


Properties will be evaluated at   0.000000,   0.000000,   0.000000 [a0]

Properties computed using the SCF density matrix

  Nuclear Dipole Moment: [e a0]
     X:     0.0000      Y:     0.0000      Z:     0.0000

  Electronic Dipole Moment: [e a0]
     X:     0.0000      Y:     0.0000      Z:     0.0000

  Dipole Moment: [e a0]
     X:     0.0000      Y:     0.0000      Z:     0.0000     Total:     0.0000

  Dipole Moment: [D]
     X:     0.0000      Y:     0.0000      Z:     0.0000     Total:     0.0000


*** tstop() called on compute490.bc4.acrc.priv at Fri Nov  5 07:23:53 2021
Module time:
	user time   =      42.30 seconds =       0.71 minutes
	system time =       1.39 seconds =       0.02 minutes
	total time  =          5 seconds =       0.08 minutes
Total time:
	user time   =     905.30 seconds =      15.09 minutes
	system time =      22.94 seconds =       0.38 minutes
	total time  =        160 seconds =       2.67 minutes

*** tstart() called on compute490.bc4.acrc.priv
*** at Fri Nov  5 07:23:53 2021


         ------------------------------------------------------------
                                   SCF GRAD                          
                          Rob Parrish, Justin Turney,                
                       Andy Simmonett, and Alex Sokolov              
         ------------------------------------------------------------

  ==> Geometry <==

    Molecular point group: d2h
    Full point group: D_inf_h

    Geometry (in Angstrom), charge = 0, multiplicity = 1:

       Center              X                  Y                   Z               Mass       
    ------------   -----------------  -----------------  -----------------  -----------------
         AU           0.000000000000     0.000000000000     1.245524026729   196.966568790000
         AU           0.000000000000     0.000000000000    -1.245524026729   196.966568790000

  Nuclear repulsion =   76.687791223742266

  ==> Basis Set <==

  Basis Set: DEF2-TZVPPD
    Blend: DEF2-TZVPPD
    Number of shells: 34
    Number of basis functions: 118
    Number of Cartesian functions: 148
    Spherical Harmonics?: true
    Max angular momentum: 4

  Core potential: DEF2-TZVPPD
    Number of shells: 8
    Number of ECP primitives: 28
    Number of ECP core electrons: 120
    Max angular momentum: 3

  ==> DFJKGrad: Density-Fitted SCF Gradients <==

    Gradient:                    1
    J tasked:                  Yes
    K tasked:                  Yes
    wK tasked:                  No
    OpenMP threads:             28
    Integrals threads:          28
    Memory [MiB]:            85830
    Schwarz Cutoff:          1E-12
    Fitting Condition:       1E-10

   => Auxiliary Basis Set <=

  Basis Set: (DEF2-TZVPPD AUX)
    Blend: DEF2-UNIVERSAL-JKFIT
    Number of shells: 102
    Number of basis functions: 494
    Number of Cartesian functions: 730
    Spherical Harmonics?: true
    Max angular momentum: 6

  ==> DFT Potential <==

   => Composite Functional: MN15-D3BJ <= 

   MN15 Hybrid Meta-GGA Exchange-Correlation Functional

    H. S. Yu, X. He, S. L. Li, and D. G. Truhlar, Chem. Sci. 7, 5032-5051, 2016


    Deriv               =              1
    GGA                 =           TRUE
    Meta                =           TRUE

    Exchange Hybrid     =           TRUE
    MP2 Hybrid          =          FALSE

   => Exchange Functionals <=

    1.0000   XC_HYB_MGGA_X_MN15

   => Exact (HF) Exchange <=

    0.4400               HF 

   => Correlation Functionals <=

    1.0000   XC_MGGA_C_MN15

   => LibXC Density Thresholds  <==

    XC_MGGA_C_MN15:  1.00E-15 
    XC_HYB_MGGA_X_MN15:  1.00E-15 

   => Molecular Quadrature <=

    Radial Scheme          =       TREUTLER
    Pruning Scheme         =           NONE
    Nuclear Scheme         =       TREUTLER

    BS radius alpha        =              1
    Pruning alpha          =              1
    Radial Points          =             75
    Spherical Points       =            302
    Total Points           =          42538
    Total Blocks           =            414
    Max Points             =            255
    Max Functions          =            116
    Weights Tolerance      =       1.00E-15


  -Total Gradient:
     Atom            X                  Y                   Z
    ------   -----------------  -----------------  -----------------
       1        0.000000000000     0.000000000000    -0.175062318735
       2        0.000000000000     0.000000000000     0.175062318735


*** tstop() called on compute490.bc4.acrc.priv at Fri Nov  5 07:24:00 2021
Module time:
	user time   =      37.42 seconds =       0.62 minutes
	system time =       2.75 seconds =       0.05 minutes
	total time  =          7 seconds =       0.12 minutes
Total time:
	user time   =     945.42 seconds =      15.76 minutes
	system time =      25.83 seconds =       0.43 minutes
	total time  =        167 seconds =       2.78 minutes


  ==> Adding ECP gradient terms (computed numerically) <==

  -ECP Gradient:
     Atom            X                  Y                   Z
    ------   -----------------  -----------------  -----------------
       1        0.000000000000     0.000000000000     0.175310770976
       2        0.000000000000     0.000000000000    -0.175310770976


  -Total Gradient:
     Atom            X                  Y                   Z
    ------   -----------------  -----------------  -----------------
       1        0.000000000000     0.000000000000     0.000248452241
       2        0.000000000000     0.000000000000    -0.000248452241


			-----------------------------------------
			 OPTKING 2.0: for geometry optimizations 
			  - R.A. King,  Bethel University        
			-----------------------------------------
	At level 1: Red. Int., RFO, no backsteps, dynamic trust

	Previous internal coordinate definitions found.
	---Fragment 1 Geometry and Gradient---
	 AU          0.0000000000        0.0000000000        2.3536992932
	 AU          0.0000000000        0.0000000000       -2.3536992932
	             0.0000000000        0.0000000000        0.0002484522
	             0.0000000000        0.0000000000       -0.0002484522

	---Fragment 1 Intrafragment Coordinates---
	 - Coordinate -           - BOHR/RAD -       - ANG/DEG -
	 R(1,2)           =         4.707399	       2.491048

	Current energy   :      -271.0442695984

	Energy change for the previous step:
		Projected    :         0.0000225228
		Actual       :        -0.0000044526

	Performing BFGS update.
	Previous computed or guess Hessian on step 1.
	Steps to be used in Hessian update: 2 1
	Taking RFO optimization step.
	Going to follow RFO solution 1.
	Using RFO vector 1.
	Norm of target step-size    0.00176
	Projected energy change by RFO approximation:         0.0000011093

	Back-transformation to cartesian coordinates...
	Successfully converged to displaced geometry.

	--- Internal Coordinate Step in ANG or DEG, aJ/ANG or AJ/DEG ---
	 ---------------------------------------------------------------------------
	   Coordinate                Previous        Force       Change         New 
	   ----------                --------       ------       ------       ------
	    1 R(1,2)          =      2.491048    -0.002047    -0.000931     2.490117
	 ---------------------------------------------------------------------------
	Successfully symmetrized geometry.

  ==> Convergence Check <==

  Measures of convergence in internal coordinates in au.
  Criteria marked as inactive (o), active & met (*), and active & unmet ( ).
  ---------------------------------------------------------------------------------------------
   Step     Total Energy     Delta E     MAX Force     RMS Force      MAX Disp      RMS Disp   
  ---------------------------------------------------------------------------------------------
    Convergence Criteria    1.00e-06 *    3.00e-04 *             o    1.20e-03 *             o
  ---------------------------------------------------------------------------------------------
      3    -271.04426960   -4.45e-06      2.48e-04 *    2.48e-04 o    1.76e-03      1.76e-03 o  ~
  ---------------------------------------------------------------------------------------------

	Writing optimization data to binary file.
	Structure for next step:
	Cartesian Geometry (in Angstrom)
	   AU     0.0000000000   0.0000000000   1.2450587319
	   AU     0.0000000000   0.0000000000  -1.2450587319
			--------------------------
			 OPTKING Finished Execution 
			--------------------------

    Structure for next step:
    Molecular point group: d2h
    Full point group: D_inf_h

    Geometry (in Angstrom), charge = 0, multiplicity = 1:

    AU           0.000000000000     0.000000000000     1.245058736823
    AU           0.000000000000     0.000000000000    -1.245058736823


Scratch directory: /tmp/
gradient() will perform analytic gradient computation.

*** tstart() called on compute490.bc4.acrc.priv
*** at Fri Nov  5 07:25:03 2021

   => Loading Basis Set <=

    Name: DEF2-TZVPPD
    Role: ORBITAL
    Keyword: BASIS
    atoms 1-2 entry AU         line  2995 (ECP: line  4084) file /mnt/storage/home/zw18965/.conda/envs/p4env/share/psi4/basis/def2-tzvppd.gbs 

    !!!  WARNING: ECP capability is in beta. Please check occupations closely.  !!!

   => MN15-D3(BJ): Empirical Dispersion <=

    Grimme's -D3 (BJ-damping) Dispersion Correction
    Grimme S.; Ehrlich S.; Goerigk L. (2011), J. Comput. Chem., 32: 1456
    Parametrisation from:    L. Goerigk, A. Hansen, C. Bauer, S. Ehrlich, A. Najibi, S. Grimme, Phys. Chem. Chem. Phys. 19, 32184-32215, 2017

        s6 =       1.000000
        s8 =       2.097100
        a1 =       0.786200
        a2 =       7.592300


         ---------------------------------------------------------
                                   SCF
               by Justin Turney, Rob Parrish, Andy Simmonett
                          and Daniel G. A. Smith
                              RKS Reference
                       28 Threads, 114440 MiB Core
         ---------------------------------------------------------

  ==> Geometry <==

    Molecular point group: d2h
    Full point group: D_inf_h

    Geometry (in Angstrom), charge = 0, multiplicity = 1:

       Center              X                  Y                   Z               Mass       
    ------------   -----------------  -----------------  -----------------  -----------------
         AU           0.000000000000     0.000000000000     1.245058736823   196.966568790000
         AU           0.000000000000     0.000000000000    -1.245058736823   196.966568790000

  Running in d2h symmetry.

  Rotational constants: A = ************  B =      0.02761  C =      0.02761 [cm^-1]
  Rotational constants: A = ************  B =    827.58956  C =    827.58956 [MHz]
  Nuclear repulsion =   76.716450156927507

  Charge       = 0
  Multiplicity = 1
  Electrons    = 38
  Nalpha       = 19
  Nbeta        = 19

  ==> Algorithm <==

  SCF Algorithm Type is DF.
  DIIS enabled.
  MOM disabled.
  Fractional occupation disabled.
  Guess Type is READ.
  Energy threshold   = 1.00e-08
  Density threshold  = 1.00e-08
  Integral threshold = 1.00e-12

  ==> Primary Basis <==

  Basis Set: DEF2-TZVPPD
    Blend: DEF2-TZVPPD
    Number of shells: 34
    Number of basis functions: 118
    Number of Cartesian functions: 148
    Spherical Harmonics?: true
    Max angular momentum: 4

  Core potential: DEF2-TZVPPD
    Number of shells: 8
    Number of ECP primitives: 28
    Number of ECP core electrons: 120
    Max angular momentum: 3

  ==> DFT Potential <==

   => Composite Functional: MN15-D3BJ <= 

   MN15 Hybrid Meta-GGA Exchange-Correlation Functional

    H. S. Yu, X. He, S. L. Li, and D. G. Truhlar, Chem. Sci. 7, 5032-5051, 2016


    Deriv               =              1
    GGA                 =           TRUE
    Meta                =           TRUE

    Exchange Hybrid     =           TRUE
    MP2 Hybrid          =          FALSE

   => Exchange Functionals <=

    1.0000   XC_HYB_MGGA_X_MN15

   => Exact (HF) Exchange <=

    0.4400               HF 

   => Correlation Functionals <=

    1.0000   XC_MGGA_C_MN15

   => LibXC Density Thresholds  <==

    XC_MGGA_C_MN15:  1.00E-15 
    XC_HYB_MGGA_X_MN15:  1.00E-15 

   => Molecular Quadrature <=

    Radial Scheme          =       TREUTLER
    Pruning Scheme         =           NONE
    Nuclear Scheme         =       TREUTLER

    BS radius alpha        =              1
    Pruning alpha          =              1
    Radial Points          =             75
    Spherical Points       =            302
    Total Points           =          42540
    Total Blocks           =            414
    Max Points             =            255
    Max Functions          =            116
    Weights Tolerance      =       1.00E-15

   => Loading Basis Set <=

    Name: (DEF2-TZVPPD AUX)
    Role: JKFIT
    Keyword: DF_BASIS_SCF
    atoms 1-2 entry AU         line  8426 file /mnt/storage/home/zw18965/.conda/envs/p4env/share/psi4/basis/def2-universal-jkfit.gbs 

   => Loading Basis Set <=

    Name: DEF2-TZVPPD
    Role: ORBITAL
    Keyword: BASIS
    atoms 1-2 entry AU         line  2995 (ECP: line  4084) file /mnt/storage/home/zw18965/.conda/envs/p4env/share/psi4/basis/def2-tzvppd.gbs 

    !!!  WARNING: ECP capability is in beta. Please check occupations closely.  !!!

  Reading orbitals from file /tmp/Au02N0.default.16022.180.npy, no projection.

  ==> Integral Setup <==

  DFHelper Memory: AOs need 0.060 GiB; user supplied 83.524 GiB. Using in-core AOs.

  ==> MemDFJK: Density-Fitted J/K Matrices <==

    J tasked:                   Yes
    K tasked:                   Yes
    wK tasked:                   No
    OpenMP threads:              28
    Memory [MiB]:             85528
    Algorithm:                 Core
    Schwarz Cutoff:           1E-12
    Mask sparsity (%):       0.4309
    Fitting Condition:        1E-10

   => Auxiliary Basis Set <=

  Basis Set: (DEF2-TZVPPD AUX)
    Blend: DEF2-UNIVERSAL-JKFIT
    Number of shells: 102
    Number of basis functions: 494
    Number of Cartesian functions: 730
    Spherical Harmonics?: true
    Max angular momentum: 6

  Cached 100.0% of DFT collocation blocks in 0.296 [GiB].

  Minimum eigenvalue in the overlap matrix is 3.7768460424E-03.
  Reciprocal condition number of the overlap matrix is 9.0581778067E-04.
    Using symmetric orthogonalization.

  ==> Pre-Iterations <==

  SCF Guess: Orbitals guess was supplied from a previous computation.

   -------------------------------------------------------
    Irrep   Nso     Nmo     Nalpha   Nbeta   Ndocc  Nsocc
   -------------------------------------------------------
     Ag        24      24       5       5       5       0
     B1g        7       7       1       1       1       0
     B2g       14      14       2       2       2       0
     B3g       14      14       2       2       2       0
     Au         7       7       1       1       1       0
     B1u       24      24       4       4       4       0
     B2u       14      14       2       2       2       0
     B3u       14      14       2       2       2       0
   -------------------------------------------------------
    Total     118     118      19      19      19       0
   -------------------------------------------------------

  ==> Iterations <==

                           Total Energy        Delta E     RMS |[F,P]|

   @DF-RKS iter   0:  -271.04424621706045   -2.71044e+02   5.11239e-05 
   @DF-RKS iter   1:  -271.04426950131938   -2.32843e-05   2.63733e-06 DIIS
   @DF-RKS iter   2:  -271.04426950179902   -4.79645e-10   3.22518e-06 DIIS
   @DF-RKS iter   3:  -271.04426950846943   -6.67040e-09   3.33925e-07 DIIS
   @DF-RKS iter   4:  -271.04426950874091   -2.71484e-10   1.40845e-07 DIIS
   @DF-RKS iter   5:  -271.04426950882339   -8.24798e-11   1.20578e-07 DIIS
   @DF-RKS iter   6:  -271.04426950884539   -2.19984e-11   1.94922e-08 DIIS
   @DF-RKS iter   7:  -271.04426950884636   -9.66338e-13   2.09657e-09 DIIS
  Energy and wave function converged.


  ==> Post-Iterations <==

   Electrons on quadrature grid:
      Ntotal   =   38.0000008014 ; deviation = 8.014e-07 

    Orbital Energies [Eh]
    ---------------------

    Doubly Occupied:                                                      

       1Ag    -4.105578     1B1u   -4.104886     2Ag    -2.320735  
       2B1u   -2.306833     1B2u   -2.306181     1B3u   -2.306181  
       1B3g   -2.304956     1B2g   -2.304956     3Ag    -0.411475  
       2B3u   -0.381412     2B2u   -0.381412     4Ag    -0.343407  
       1B1g   -0.343397     3B1u   -0.329327     1Au    -0.329316  
       2B2g   -0.314578     2B3g   -0.314578     4B1u   -0.309769  
       5Ag    -0.296476  

    Virtual:                                                              

       5B1u   -0.112644     3B2u   -0.003673     3B3u   -0.003673  
       6Ag     0.027536     3B2g    0.080071     3B3g    0.080071  
       6B1u    0.122249     7Ag     0.186430     8Ag     0.223212  
       4B3u    0.225809     4B2u    0.225809     7B1u    0.268379  
       4B2g    0.277680     4B3g    0.277680     9Ag     0.311387  
       2B1g    0.311392     5B2u    0.372886     5B3u    0.372886  
       8B1u    0.376405     9B1u    0.397892     2Au     0.397896  
       5B2g    0.491823     5B3g    0.491823    10Ag     0.498479  
      10B1u    0.627847    11Ag     0.881345     6B3u    0.965258  
       6B2u    0.965258    12Ag     1.067873     3B1g    1.067876  
       7B3u    1.109703     7B2u    1.109703     6B2g    1.118961  
       6B3g    1.118961    11B1u    1.122252     8B3u    1.136421  
       8B2u    1.136421     7B2g    1.155978     7B3g    1.155978  
      12B1u    1.217823     3Au     1.217829    13Ag     1.342896  
      13B1u    1.379222     8B2g    1.389697     8B3g    1.389697  
       9B2u    1.484302     9B3u    1.484302    14Ag     1.500776  
       4B1g    1.500793    15Ag     1.551423    14B1u    1.554274  
       4Au     1.554293     9B3g    1.706440     9B2g    1.706440  
      15B1u    1.996962    16Ag     2.001349    16B1u    2.488332  
      10B2u    3.455783    10B3u    3.455783    17Ag     3.463801  
       5B1g    3.463838    11B2u    3.517344    11B3u    3.517344  
      10B3g    3.535011    10B2g    3.535011    17B1u    3.593739  
       5Au     3.593784    18Ag     3.660634    11B3g    3.732778  
      11B2g    3.732778    18B1u    3.809881    19Ag     3.997906  
      12B3u    4.013655    12B2u    4.013655    20Ag     4.024227  
       6B1g    4.024257    13B3u    4.035018    13B2u    4.035018  
      12B2g    4.036761    12B3g    4.036761    19B1u    4.040646  
       6Au     4.040668     7B1g    4.042745    21Ag     4.042824  
       7Au     4.042825    20B1u    4.042905    13B2g    4.137586  
      13B3g    4.137586    21B1u    4.399137    14B2u   26.879402  
      14B3u   26.879402    22Ag    27.040744    14B3g   27.312428  
      14B2g   27.312428    22B1u   29.938858    23Ag    43.496551  
      23B1u   43.949596    24Ag   204.951990    24B1u  205.150206  

    Final Occupation by Irrep:
             Ag   B1g   B2g   B3g    Au   B1u   B2u   B3u 
    DOCC [     5,    1,    2,    2,    1,    4,    2,    2 ]

  @DF-RKS Final Energy:  -271.04426950884636

   => Energetics <=

    Nuclear Repulsion Energy =             76.7164501569275075
    One-Electron Energy =                -629.9787237142568301
    Two-Electron Energy =                 296.9384040493953876
    DFT Exchange-Correlation Energy =     -14.7203548909123842
    Empirical Dispersion Energy =          -0.0000451100000000
    VV10 Nonlocal Energy =                  0.0000000000000000
    Total Energy =                       -271.0442695088462983

Computation Completed


Properties will be evaluated at   0.000000,   0.000000,   0.000000 [a0]

Properties computed using the SCF density matrix

  Nuclear Dipole Moment: [e a0]
     X:     0.0000      Y:     0.0000      Z:     0.0000

  Electronic Dipole Moment: [e a0]
     X:     0.0000      Y:     0.0000      Z:     0.0000

  Dipole Moment: [e a0]
     X:     0.0000      Y:     0.0000      Z:     0.0000     Total:     0.0000

  Dipole Moment: [D]
     X:     0.0000      Y:     0.0000      Z:     0.0000     Total:     0.0000


*** tstop() called on compute490.bc4.acrc.priv at Fri Nov  5 07:25:07 2021
Module time:
	user time   =      43.32 seconds =       0.72 minutes
	system time =       1.33 seconds =       0.02 minutes
	total time  =          4 seconds =       0.07 minutes
Total time:
	user time   =    1324.66 seconds =      22.08 minutes
	system time =      31.48 seconds =       0.52 minutes
	total time  =        234 seconds =       3.90 minutes

*** tstart() called on compute490.bc4.acrc.priv
*** at Fri Nov  5 07:25:07 2021


         ------------------------------------------------------------
                                   SCF GRAD                          
                          Rob Parrish, Justin Turney,                
                       Andy Simmonett, and Alex Sokolov              
         ------------------------------------------------------------

  ==> Geometry <==

    Molecular point group: d2h
    Full point group: D_inf_h

    Geometry (in Angstrom), charge = 0, multiplicity = 1:

       Center              X                  Y                   Z               Mass       
    ------------   -----------------  -----------------  -----------------  -----------------
         AU           0.000000000000     0.000000000000     1.245058736823   196.966568790000
         AU           0.000000000000     0.000000000000    -1.245058736823   196.966568790000

  Nuclear repulsion =   76.716450156927507

  ==> Basis Set <==

  Basis Set: DEF2-TZVPPD
    Blend: DEF2-TZVPPD
    Number of shells: 34
    Number of basis functions: 118
    Number of Cartesian functions: 148
    Spherical Harmonics?: true
    Max angular momentum: 4

  Core potential: DEF2-TZVPPD
    Number of shells: 8
    Number of ECP primitives: 28
    Number of ECP core electrons: 120
    Max angular momentum: 3

  ==> DFJKGrad: Density-Fitted SCF Gradients <==

    Gradient:                    1
    J tasked:                  Yes
    K tasked:                  Yes
    wK tasked:                  No
    OpenMP threads:             28
    Integrals threads:          28
    Memory [MiB]:            85830
    Schwarz Cutoff:          1E-12
    Fitting Condition:       1E-10

   => Auxiliary Basis Set <=

  Basis Set: (DEF2-TZVPPD AUX)
    Blend: DEF2-UNIVERSAL-JKFIT
    Number of shells: 102
    Number of basis functions: 494
    Number of Cartesian functions: 730
    Spherical Harmonics?: true
    Max angular momentum: 6

  ==> DFT Potential <==

   => Composite Functional: MN15-D3BJ <= 

   MN15 Hybrid Meta-GGA Exchange-Correlation Functional

    H. S. Yu, X. He, S. L. Li, and D. G. Truhlar, Chem. Sci. 7, 5032-5051, 2016


    Deriv               =              1
    GGA                 =           TRUE
    Meta                =           TRUE

    Exchange Hybrid     =           TRUE
    MP2 Hybrid          =          FALSE

   => Exchange Functionals <=

    1.0000   XC_HYB_MGGA_X_MN15

   => Exact (HF) Exchange <=

    0.4400               HF 

   => Correlation Functionals <=

    1.0000   XC_MGGA_C_MN15

   => LibXC Density Thresholds  <==

    XC_MGGA_C_MN15:  1.00E-15 
    XC_HYB_MGGA_X_MN15:  1.00E-15 

   => Molecular Quadrature <=

    Radial Scheme          =       TREUTLER
    Pruning Scheme         =           NONE
    Nuclear Scheme         =       TREUTLER

    BS radius alpha        =              1
    Pruning alpha          =              1
    Radial Points          =             75
    Spherical Points       =            302
    Total Points           =          42540
    Total Blocks           =            414
    Max Points             =            255
    Max Functions          =            116
    Weights Tolerance      =       1.00E-15


  -Total Gradient:
     Atom            X                  Y                   Z
    ------   -----------------  -----------------  -----------------
       1        0.000000000000    -0.000000000000    -0.175618234131
       2        0.000000000000    -0.000000000000     0.175618234131


*** tstop() called on compute490.bc4.acrc.priv at Fri Nov  5 07:25:14 2021
Module time:
	user time   =      37.65 seconds =       0.63 minutes
	system time =       1.42 seconds =       0.02 minutes
	total time  =          7 seconds =       0.12 minutes
Total time:
	user time   =    1365.06 seconds =      22.75 minutes
	system time =      33.03 seconds =       0.55 minutes
	total time  =        241 seconds =       4.02 minutes


  ==> Adding ECP gradient terms (computed numerically) <==

  -ECP Gradient:
     Atom            X                  Y                   Z
    ------   -----------------  -----------------  -----------------
       1        0.000000000000    -0.000000000000     0.175452994329
       2        0.000000000000    -0.000000000000    -0.175452994329


  -Total Gradient:
     Atom            X                  Y                   Z
    ------   -----------------  -----------------  -----------------
       1        0.000000000000    -0.000000000000    -0.000165239802
       2        0.000000000000    -0.000000000000     0.000165239802


			-----------------------------------------
			 OPTKING 2.0: for geometry optimizations 
			  - R.A. King,  Bethel University        
			-----------------------------------------
	At level 1: Red. Int., RFO, no backsteps, dynamic trust

	Previous internal coordinate definitions found.
	---Fragment 1 Geometry and Gradient---
	 AU          0.0000000000        0.0000000000        2.3528200227
	 AU          0.0000000000        0.0000000000       -2.3528200227
	             0.0000000000       -0.0000000000       -0.0001652398
	             0.0000000000       -0.0000000000        0.0001652398

	---Fragment 1 Intrafragment Coordinates---
	 - Coordinate -           - BOHR/RAD -       - ANG/DEG -
	 R(1,2)           =         4.705640	       2.490117

	Current energy   :      -271.0442695088

	Energy change for the previous step:
		Projected    :         0.0000011093
		Actual       :         0.0000000895

	Performing BFGS update.
	Previous computed or guess Hessian on step 1.
	Steps to be used in Hessian update: 3 2
	Taking RFO optimization step.
	Going to follow RFO solution 1.
	Using RFO vector 1.
	Norm of target step-size    0.00134
	Projected energy change by RFO approximation:         0.0000006724

	Back-transformation to cartesian coordinates...
	Successfully converged to displaced geometry.

	--- Internal Coordinate Step in ANG or DEG, aJ/ANG or AJ/DEG ---
	 ---------------------------------------------------------------------------
	   Coordinate                Previous        Force       Change         New 
	   ----------                --------       ------       ------       ------
	    1 R(1,2)          =      2.490117     0.001361     0.000707     2.490825
	 ---------------------------------------------------------------------------
	Successfully symmetrized geometry.

  ==> Convergence Check <==

  Measures of convergence in internal coordinates in au.
  Criteria marked as inactive (o), active & met (*), and active & unmet ( ).
  ---------------------------------------------------------------------------------------------
   Step     Total Energy     Delta E     MAX Force     RMS Force      MAX Disp      RMS Disp   
  ---------------------------------------------------------------------------------------------
    Convergence Criteria    1.00e-06 *    3.00e-04 *             o    1.20e-03 *             o
[...]


    Deriv               =              1
    GGA                 =           TRUE
    Meta                =           TRUE

    Exchange Hybrid     =           TRUE
    MP2 Hybrid          =          FALSE

   => Exchange Functionals <=

    1.0000   XC_HYB_MGGA_X_MN15

   => Exact (HF) Exchange <=

    0.4400               HF 

   => Correlation Functionals <=

    1.0000   XC_MGGA_C_MN15

   => LibXC Density Thresholds  <==

    XC_MGGA_C_MN15:  1.00E-15 
    XC_HYB_MGGA_X_MN15:  1.00E-15 

   => Molecular Quadrature <=

    Radial Scheme          =       TREUTLER
    Pruning Scheme         =           NONE
    Nuclear Scheme         =       TREUTLER

    BS radius alpha        =              1
    Pruning alpha          =              1
    Radial Points          =             75
    Spherical Points       =            302
    Total Points           =          42538
    Total Blocks           =            414
    Max Points             =            255
    Max Functions          =            116
    Weights Tolerance      =       1.00E-15

   => Loading Basis Set <=

    Name: (DEF2-TZVPPD AUX)
    Role: JKFIT
    Keyword: DF_BASIS_SCF
    atoms 1-2 entry AU         line  8426 file /mnt/storage/home/zw18965/.conda/envs/p4env/share/psi4/basis/def2-universal-jkfit.gbs 

  ==> Integral Setup <==

  DFHelper Memory: AOs need 0.060 GiB; user supplied 83.524 GiB. Using in-core AOs.

  ==> MemDFJK: Density-Fitted J/K Matrices <==

    J tasked:                   Yes
    K tasked:                   Yes
    wK tasked:                   No
    OpenMP threads:              28
    Memory [MiB]:             85528
    Algorithm:                 Core
    Schwarz Cutoff:           1E-12
    Mask sparsity (%):       0.4309
    Fitting Condition:        1E-10

   => Auxiliary Basis Set <=

  Basis Set: (DEF2-TZVPPD AUX)
    Blend: DEF2-UNIVERSAL-JKFIT
    Number of shells: 102
    Number of basis functions: 494
    Number of Cartesian functions: 730
    Spherical Harmonics?: true
    Max angular momentum: 6

  Cached 100.0% of DFT collocation blocks in 0.295 [GiB].

  Minimum eigenvalue in the overlap matrix is 3.7787150007E-03.
  Reciprocal condition number of the overlap matrix is 9.0630811527E-04.
    Using symmetric orthogonalization.

  ==> Pre-Iterations <==

  SCF Guess: Superposition of Atomic Densities via on-the-fly atomic UHF (no occupation information).

   -------------------------
    Irrep   Nso     Nmo    
   -------------------------
     Ag        24      24 
     B1g        7       7 
     B2g       14      14 
     B3g       14      14 
     Au         7       7 
     B1u       24      24 
     B2u       14      14 
     B3u       14      14 
   -------------------------
    Total     118     118
   -------------------------

  ==> Iterations <==

                           Total Energy        Delta E     RMS |[F,P]|

   @DF-RKS iter SAD:  -270.49795605522161   -2.70498e+02   0.00000e+00 
   @DF-RKS iter   1:  -270.99803882528579   -5.00083e-01   7.44142e-03 DIIS
   @DF-RKS iter   2:  -270.96293056516333    3.51083e-02   1.14107e-02 DIIS
   @DF-RKS iter   3:  -271.04379524227716   -8.08647e-02   5.15395e-04 DIIS
   @DF-RKS iter   4:  -271.04416249514725   -3.67253e-04   2.15561e-04 DIIS
   @DF-RKS iter   5:  -271.04423995364846   -7.74585e-05   8.65242e-05 DIIS
   @DF-RKS iter   6:  -271.04426622031258   -2.62667e-05   2.16305e-05 DIIS
   @DF-RKS iter   7:  -271.04426954941994   -3.32911e-06   2.40518e-06 DIIS
   @DF-RKS iter   8:  -271.04426956411311   -1.46932e-08   3.54177e-07 DIIS
   @DF-RKS iter   9:  -271.04426956460594   -4.92832e-10   1.00785e-07 DIIS
   @DF-RKS iter  10:  -271.04426956462538   -1.94404e-11   1.52245e-08 DIIS
   @DF-RKS iter  11:  -271.04426956462595   -5.68434e-13   1.47192e-09 DIIS
  Energy and wave function converged.


  ==> Post-Iterations <==

   Electrons on quadrature grid:
      Ntotal   =   38.0000007811 ; deviation = 7.811e-07 

    Orbital Energies [Eh]
    ---------------------

    Doubly Occupied:                                                      

       1Ag    -4.105574     1B1u   -4.104883     2Ag    -2.320720  
       2B1u   -2.306833     1B2u   -2.306178     1B3u   -2.306178  
       1B3g   -2.304954     1B2g   -2.304954     3Ag    -0.411441  
       2B3u   -0.381389     2B2u   -0.381388     4Ag    -0.343401  
       1B1g   -0.343391     3B1u   -0.329330     1Au    -0.329319  
       2B2g   -0.314590     2B3g   -0.314590     4B1u   -0.309781  
       5Ag    -0.296466  

    Virtual:                                                              

       5B1u   -0.112657     3B3u   -0.003671     3B2u   -0.003671  
       6Ag     0.027527     3B3g    0.080061     3B2g    0.080061  
       6B1u    0.122246     7Ag     0.186428     8Ag     0.223208  
       4B3u    0.225812     4B2u    0.225812     7B1u    0.268379  
       4B2g    0.277672     4B3g    0.277672     9Ag     0.311386  
       2B1g    0.311392     5B3u    0.372873     5B2u    0.372873  
       8B1u    0.376367     9B1u    0.397886     2Au     0.397890  
       5B2g    0.491815     5B3g    0.491815    10Ag     0.498475  
      10B1u    0.627812    11Ag     0.881343     6B3u    0.965312  
       6B2u    0.965312    12Ag     1.067919     3B1g    1.067922  
       7B3u    1.109680     7B2u    1.109680     6B2g    1.118948  
       6B3g    1.118948    11B1u    1.122250     8B3u    1.136430  
       8B2u    1.136430     7B3g    1.155969     7B2g    1.155969  
      12B1u    1.217775     3Au     1.217781    13Ag     1.342867  
      13B1u    1.379192     8B2g    1.389645     8B3g    1.389645  
       9B3u    1.484307     9B2u    1.484307    14Ag     1.500787  
       4B1g    1.500804    15Ag     1.551383    14B1u    1.554264  
       4Au     1.554282     9B2g    1.706328     9B3g    1.706328  
      15B1u    1.996748    16Ag     2.001286    16B1u    2.488184  
      10B3u    3.455744    10B2u    3.455744    17Ag     3.463831  
       5B1g    3.463869    11B2u    3.517354    11B3u    3.517354  
      10B3g    3.535005    10B2g    3.535005    17B1u    3.593703  
       5Au     3.593747    18Ag     3.660473    11B2g    3.732771  
      11B3g    3.732771    18B1u    3.809955    19Ag     3.997971  
      12B3u    4.013689    12B2u    4.013689    20Ag     4.024242  
       6B1g    4.024272    13B2u    4.035023    13B3u    4.035023  
      12B3g    4.036763    12B2g    4.036763    19B1u    4.040629  
       6Au     4.040651     7B1g    4.042746    21Ag     4.042825  
       7Au     4.042826    20B1u    4.042905    13B2g    4.137416  
      13B3g    4.137416    21B1u    4.398814    14B3u   26.879455  
      14B2u   26.879455    22Ag    27.040408    14B2g   27.312254  
      14B3g   27.312254    22B1u   29.936638    23Ag    43.496504  
      23B1u   43.949454    24Ag   204.951970    24B1u  205.150146  

    Final Occupation by Irrep:
             Ag   B1g   B2g   B3g    Au   B1u   B2u   B3u 
    DOCC [     5,    1,    2,    2,    1,    4,    2,    2 ]

  @DF-RKS Final Energy:  -271.04426956462595

   => Energetics <=

    Nuclear Repulsion Energy =             76.7082369636963080
    One-Electron Energy =                -629.9625158301957981
    Two-Electron Energy =                 296.9303784860861128
    DFT Exchange-Correlation Energy =     -14.7203240742125967
    Empirical Dispersion Energy =          -0.0000451100000000
    VV10 Nonlocal Energy =                  0.0000000000000000
    Total Energy =                       -271.0442695646259494

Computation Completed


Properties will be evaluated at   0.000000,   0.000000,   0.000000 [a0]

Properties computed using the SCF density matrix

  Nuclear Dipole Moment: [e a0]
     X:     0.0000      Y:     0.0000      Z:     0.0000

  Electronic Dipole Moment: [e a0]
     X:     0.0000      Y:     0.0000      Z:     0.0000

  Dipole Moment: [e a0]
     X:     0.0000      Y:     0.0000      Z:     0.0000     Total:     0.0000

  Dipole Moment: [D]
     X:     0.0000      Y:     0.0000      Z:     0.0000     Total:     0.0000


*** tstop() called on compute490.bc4.acrc.priv at Fri Nov  5 07:30:11 2021
Module time:
	user time   =      55.35 seconds =       0.92 minutes
	system time =       1.52 seconds =       0.03 minutes
	total time  =          5 seconds =       0.08 minutes
Total time:
	user time   =    3058.97 seconds =      50.98 minutes
	system time =      64.23 seconds =       1.07 minutes
	total time  =        538 seconds =       8.97 minutes

*** tstart() called on compute490.bc4.acrc.priv
*** at Fri Nov  5 07:30:11 2021


         ------------------------------------------------------------
                                   SCF GRAD                          
                          Rob Parrish, Justin Turney,                
                       Andy Simmonett, and Alex Sokolov              
         ------------------------------------------------------------

  ==> Geometry <==

    Molecular point group: d2h
    Full point group: D_inf_h

    Geometry (in Angstrom), charge = 0, multiplicity = 1:

       Center              X                  Y                   Z               Mass       
    ------------   -----------------  -----------------  -----------------  -----------------
         AU           0.000000000000     0.000000000000     1.245192045949   196.966568790000
         AU           0.000000000000     0.000000000000    -1.245192045949   196.966568790000

  Nuclear repulsion =   76.708236963696308

  ==> Basis Set <==

  Basis Set: DEF2-TZVPPD
    Blend: DEF2-TZVPPD
    Number of shells: 34
    Number of basis functions: 118
    Number of Cartesian functions: 148
    Spherical Harmonics?: true
    Max angular momentum: 4

  Core potential: DEF2-TZVPPD
    Number of shells: 8
    Number of ECP primitives: 28
    Number of ECP core electrons: 120
    Max angular momentum: 3

  ==> DFJKGrad: Density-Fitted SCF Gradients <==

    Gradient:                    1
    J tasked:                  Yes
    K tasked:                  Yes
    wK tasked:                  No
    OpenMP threads:             28
    Integrals threads:          28
    Memory [MiB]:            85830
    Schwarz Cutoff:          1E-12
    Fitting Condition:       1E-10

   => Auxiliary Basis Set <=

  Basis Set: (DEF2-TZVPPD AUX)
    Blend: DEF2-UNIVERSAL-JKFIT
    Number of shells: 102
    Number of basis functions: 494
    Number of Cartesian functions: 730
    Spherical Harmonics?: true
    Max angular momentum: 6

  ==> DFT Potential <==

   => Composite Functional: MN15-D3BJ <= 

   MN15 Hybrid Meta-GGA Exchange-Correlation Functional

    H. S. Yu, X. He, S. L. Li, and D. G. Truhlar, Chem. Sci. 7, 5032-5051, 2016


    Deriv               =              1
    GGA                 =           TRUE
    Meta                =           TRUE

    Exchange Hybrid     =           TRUE
    MP2 Hybrid          =          FALSE

   => Exchange Functionals <=

    1.0000   XC_HYB_MGGA_X_MN15

   => Exact (HF) Exchange <=

    0.4400               HF 

   => Correlation Functionals <=

    1.0000   XC_MGGA_C_MN15

   => LibXC Density Thresholds  <==

    XC_MGGA_C_MN15:  1.00E-15 
    XC_HYB_MGGA_X_MN15:  1.00E-15 

   => Molecular Quadrature <=

    Radial Scheme          =       TREUTLER
    Pruning Scheme         =           NONE
    Nuclear Scheme         =       TREUTLER

    BS radius alpha        =              1
    Pruning alpha          =              1
    Radial Points          =             75
    Spherical Points       =            302
    Total Points           =          42538
    Total Blocks           =            414
    Max Points             =            255
    Max Functions          =            116
    Weights Tolerance      =       1.00E-15


  -Total Gradient:
     Atom            X                  Y                   Z
    ------   -----------------  -----------------  -----------------
       1        0.000000000000     0.000000000000    -0.175458809745
       2        0.000000000000     0.000000000000     0.175458809745


*** tstop() called on compute490.bc4.acrc.priv at Fri Nov  5 07:30:19 2021
Module time:
	user time   =      36.79 seconds =       0.61 minutes
	system time =       2.91 seconds =       0.05 minutes
	total time  =          8 seconds =       0.13 minutes
Total time:
	user time   =    3098.34 seconds =      51.64 minutes
	system time =      67.29 seconds =       1.12 minutes
	total time  =        546 seconds =       9.10 minutes


  ==> Adding ECP gradient terms (computed numerically) <==

  -ECP Gradient:
     Atom            X                  Y                   Z
    ------   -----------------  -----------------  -----------------
       1       -0.000000000000     0.000000000000     0.175328959620
       2       -0.000000000000     0.000000000000    -0.175328959620


  -Total Gradient:
     Atom            X                  Y                   Z
    ------   -----------------  -----------------  -----------------
       1       -0.000000000000     0.000000000000    -0.000129850125
       2       -0.000000000000     0.000000000000     0.000129850125


         ----------------------------------------------------------
                                   FINDIF
                     R. A. King and Jonathon Misiewicz
         ---------------------------------------------------------

  Computing second-derivative from gradients using projected, 
  symmetry-adapted, cartesian coordinates.

  3 gradients passed in, including the reference geometry.
  Generating complete list of displacements from unique ones.


-------------------------------------------------------------


  ==> Harmonic Vibrational Analysis <==

  non-mass-weighted Hessian:       Symmetric? True   Hermitian? True   Lin Dep Dim?  5 (0)
  projection of translations (True) and rotations (True) removed 5 degrees of freedom (5)
  total projector:                 Symmetric? True   Hermitian? True   Lin Dep Dim?  5 (5)
  mass-weighted Hessian:           Symmetric? True   Hermitian? True   Lin Dep Dim?  5 (0)
  pre-proj  low-frequency mode:    0.0000  [cm^-1]
  pre-proj  low-frequency mode:    0.0000  [cm^-1]
  pre-proj  low-frequency mode:    0.0000  [cm^-1]
  pre-proj  low-frequency mode:    0.0000  [cm^-1]
  pre-proj  low-frequency mode:    0.0000  [cm^-1]
  pre-proj  all modes:['0.0000' '0.0000' '0.0000' '0.0000' '0.0000' '185.0514']
  projected mass-weighted Hessian: Symmetric? True   Hermitian? True   Lin Dep Dim?  5 (5)
  post-proj low-frequency mode:    0.0000  [cm^-1] (TR)
  post-proj low-frequency mode:    0.0000  [cm^-1] (TR)
  post-proj low-frequency mode:    0.0000  [cm^-1] (TR)
  post-proj low-frequency mode:    0.0000  [cm^-1] (TR)
  post-proj low-frequency mode:    0.0000  [cm^-1] (TR)
  post-proj  all modes:['0.0000' '0.0000' '0.0000' '0.0000' '0.0000' '185.0514']

  Vibration                       6           
  Freq [cm^-1]                 185.0514       
  Irrep                           Ag          
  Reduced mass [u]             196.9666       
  Force const [mDyne/A]         3.9740        
  Turning point v=0 [a0]        0.0575        
  RMS dev v=0 [a0 u^1/2]        0.5704        
  Char temp [K]                266.2477       
  ----------------------------------------------------------------------------------
      1   AU               0.00  0.00  0.71   
      2   AU               0.00  0.00 -0.71   

  ==> Thermochemistry Components <==

  Entropy, S
    Electronic S            0.000 [cal/(mol K)]        0.000 [J/(mol K)]       0.00000000 [mEh/K] (multiplicity = 1)
    Translational S        43.805 [cal/(mol K)]      183.279 [J/(mol K)]       0.06980725 [mEh/K] (mol. weight = 393.9331 [u], P = 101325.00 [Pa])
    Rotational S           18.343 [cal/(mol K)]       76.746 [J/(mol K)]       0.02923092 [mEh/K] (symmetry no. = 2)
    Vibrational S           2.277 [cal/(mol K)]        9.526 [J/(mol K)]       0.00362837 [mEh/K]
  Total S                  64.424 [cal/(mol K)]      269.551 [J/(mol K)]       0.10266654 [mEh/K]
  Correction S              0.000 [cal/(mol K)]        0.000 [J/(mol K)]       0.00000000 [mEh/K]

  Constant volume heat capacity, Cv
    Electronic Cv           0.000 [cal/(mol K)]        0.000 [J/(mol K)]       0.00000000 [mEh/K]
    Translational Cv        2.981 [cal/(mol K)]       12.472 [J/(mol K)]       0.00475022 [mEh/K]
    Rotational Cv           1.987 [cal/(mol K)]        8.314 [J/(mol K)]       0.00316681 [mEh/K]
    Vibrational Cv          1.860 [cal/(mol K)]        7.783 [J/(mol K)]       0.00296450 [mEh/K]
  Total Cv                  6.828 [cal/(mol K)]       28.569 [J/(mol K)]       0.01088152 [mEh/K]
  Correction Cv             0.000 [cal/(mol K)]        0.000 [J/(mol K)]       0.00000000 [mEh/K]

  Constant pressure heat capacity, Cp
    Electronic Cp           0.000 [cal/(mol K)]        0.000 [J/(mol K)]       0.00000000 [mEh/K]
    Translational Cp        4.968 [cal/(mol K)]       20.786 [J/(mol K)]       0.00791703 [mEh/K]
    Rotational Cp           1.987 [cal/(mol K)]        8.314 [J/(mol K)]       0.00316681 [mEh/K]
    Vibrational Cp          1.860 [cal/(mol K)]        7.783 [J/(mol K)]       0.00296450 [mEh/K]
  Total Cp                  8.815 [cal/(mol K)]       36.884 [J/(mol K)]       0.01404833 [mEh/K]
  Correction Cp             0.000 [cal/(mol K)]        0.000 [J/(mol K)]       0.00000000 [mEh/K]

  ==> Thermochemistry Energy Analysis <==

  Raw electronic energy, E0
  Total E0, Electronic energy at well bottom at 0 [K]                 -271.04426951 [Eh]

  Zero-point energy, ZPE_vib = Sum_i nu_i / 2
    Electronic ZPE          0.000 [kcal/mol]        0.000 [kJ/mol]       0.00000000 [Eh]
    Translational ZPE       0.000 [kcal/mol]        0.000 [kJ/mol]       0.00000000 [Eh]
    Rotational ZPE          0.000 [kcal/mol]        0.000 [kJ/mol]       0.00000000 [Eh]
    Vibrational ZPE         0.265 [kcal/mol]        1.107 [kJ/mol]       0.00042158 [Eh]          92.526 [cm^-1]
  Correction ZPE            0.265 [kcal/mol]        1.107 [kJ/mol]       0.00042158 [Eh]          92.526 [cm^-1]
  Total ZPE, Electronic energy at 0 [K]                               -271.04384793 [Eh]

  Thermal Energy, E (includes ZPE)
    Electronic E            0.000 [kcal/mol]        0.000 [kJ/mol]       0.00000000 [Eh]
    Translational E         0.889 [kcal/mol]        3.718 [kJ/mol]       0.00141628 [Eh]
    Rotational E            0.592 [kcal/mol]        2.479 [kJ/mol]       0.00094418 [Eh]
    Vibrational E           0.631 [kcal/mol]        2.642 [kJ/mol]       0.00100611 [Eh]
  Correction E              2.113 [kcal/mol]        8.839 [kJ/mol]       0.00336657 [Eh]
  Total E, Electronic energy at  298.15 [K]                           -271.04090294 [Eh]

  Enthalpy, H_trans = E_trans + k_B * T
    Electronic H            0.000 [kcal/mol]        0.000 [kJ/mol]       0.00000000 [Eh]
    Translational H         1.481 [kcal/mol]        6.197 [kJ/mol]       0.00236046 [Eh]
    Rotational H            0.592 [kcal/mol]        2.479 [kJ/mol]       0.00094418 [Eh]
    Vibrational H           0.631 [kcal/mol]        2.642 [kJ/mol]       0.00100611 [Eh]
  Correction H              2.705 [kcal/mol]       11.318 [kJ/mol]       0.00431076 [Eh]
  Total H, Enthalpy at  298.15 [K]                                    -271.03995875 [Eh]

  Gibbs free energy, G = H - T * S
    Electronic G            0.000 [kcal/mol]        0.000 [kJ/mol]       0.00000000 [Eh]
    Translational G       -11.579 [kcal/mol]      -48.447 [kJ/mol]      -0.01845257 [Eh]
    Rotational G           -4.876 [kcal/mol]      -20.403 [kJ/mol]      -0.00777102 [Eh]
    Vibrational G          -0.047 [kcal/mol]       -0.199 [kJ/mol]      -0.00007569 [Eh]
  Correction G            -16.503 [kcal/mol]      -69.049 [kJ/mol]      -0.02629927 [Eh]
  Total G, Free enthalpy at  298.15 [K]                               -271.07056878 [Eh]

    Psi4 stopped on: Friday, 05 November 2021 07:31AM
    Psi4 wall time for execution: 0:10:09.25

*** Psi4 exiting successfully. Buy a developer a beer!
