
    -----------------------------------------------------------------------
          Psi4: An Open-Source Ab Initio Electronic Structure Package
                               Psi4 1.4.1 release

                         Git: Rev {HEAD} cd00f19 


    D. G. A. Smith, L. A. Burns, A. C. Simmonett, R. M. Parrish,
    M. C. Schieber, R. Galvelis, P. Kraus, H. Kruse, R. Di Remigio,
    A. Alenaizan, A. M. James, S. Lehtola, J. P. Misiewicz, M. Scheurer,
    R. A. Shaw, J. B. Schriber, Y. Xie, Z. L. Glick, D. A. Sirianni,
    J. S. O'Brien, J. M. Waldrop, A. Kumar, E. G. Hohenstein,
    B. P. Pritchard, B. R. Brooks, H. F. Schaefer III, A. Yu. Sokolov,
    K. Patkowski, A. E. DePrince III, U. Bozkaya, R. A. King,
    F. A. Evangelista, J. M. Turney, T. D. Crawford, C. D. Sherrill,
    J. Chem. Phys. 152(18) 184108 (2020). https://doi.org/10.1063/5.0006002

                            Additional Code Authors
    E. T. Seidl, C. L. Janssen, E. F. Valeev, M. L. Leininger,
    J. F. Gonthier, R. M. Richard, H. R. McAlexander, M. Saitow, X. Wang,
    P. Verma, and M. H. Lechner

             Previous Authors, Complete List of Code Contributors,
                       and Citations for Specific Modules
    https://github.com/psi4/psi4/blob/master/codemeta.json
    https://github.com/psi4/psi4/graphs/contributors
    http://psicode.org/psi4manual/master/introduction.html#citing-psifour

    -----------------------------------------------------------------------


    Psi4 started on: Friday, 05 November 2021 07:21AM

    Process ID: 4178
    Host:       compute088.bc4.acrc.priv
    PSIDATADIR: /mnt/storage/home/zw18965/.conda/envs/p4env/share/psi4
    Memory:     500.0 MiB
    Threads:    28
    
  ==> Input File <==

--------------------------------------------------------------------------
memory 120 GB

molecule {
1 1
Au       0.000000    1.501400   -0.000000 
Au       1.300251   -0.750700   -0.000000 
Au      -1.300251   -0.750700   -0.000000 
 }

set dynamic_level 1
set basis Def2-TZVPPD

optimize("MN15-D3BJ")
frequencies("MN15-D3BJ")
--------------------------------------------------------------------------

  Memory set to 111.759 GiB by Python driver.

Scratch directory: /tmp/
gradient() will perform analytic gradient computation.

*** tstart() called on compute088.bc4.acrc.priv
*** at Fri Nov  5 07:21:05 2021

   => Loading Basis Set <=

    Name: DEF2-TZVPPD
    Role: ORBITAL
    Keyword: BASIS
    atoms 1-3 entry AU         line  2995 (ECP: line  4084) file /mnt/storage/home/zw18965/.conda/envs/p4env/share/psi4/basis/def2-tzvppd.gbs 

    !!!  WARNING: ECP capability is in beta. Please check occupations closely.  !!!

   => MN15-D3(BJ): Empirical Dispersion <=

    Grimme's -D3 (BJ-damping) Dispersion Correction
    Grimme S.; Ehrlich S.; Goerigk L. (2011), J. Comput. Chem., 32: 1456
    Parametrisation from:    L. Goerigk, A. Hansen, C. Bauer, S. Ehrlich, A. Najibi, S. Grimme, Phys. Chem. Chem. Phys. 19, 32184-32215, 2017

        s6 =       1.000000
        s8 =       2.097100
        a1 =       0.786200
        a2 =       7.592300


         ---------------------------------------------------------
                                   SCF
               by Justin Turney, Rob Parrish, Andy Simmonett
                          and Daniel G. A. Smith
                              RKS Reference
                       28 Threads, 114440 MiB Core
         ---------------------------------------------------------

  ==> Geometry <==

    Molecular point group: c2v
    Full point group: C2v

    Geometry (in Angstrom), charge = 1, multiplicity = 1:

       Center              X                  Y                   Z               Mass       
    ------------   -----------------  -----------------  -----------------  -----------------
         AU           0.000000000000    -0.000000000000     1.501400000000   196.966568790000
         AU           1.300251000000     0.000000000000    -0.750700000000   196.966568790000
         AU          -1.300251000000    -0.000000000000    -0.750700000000   196.966568790000

  Running in c2v symmetry.

  Rotational constants: A =      0.02531  B =      0.02531  C =      0.01266 [cm^-1]
  Rotational constants: A =    758.82320  B =    758.82266  C =    379.41146 [MHz]
  Nuclear repulsion =  220.380149777535593

  Charge       = 1
  Multiplicity = 1
  Electrons    = 56
  Nalpha       = 28
  Nbeta        = 28

  ==> Algorithm <==

  SCF Algorithm Type is DF.
  DIIS enabled.
  MOM disabled.
  Fractional occupation disabled.
  Guess Type is SAD.
  Energy threshold   = 1.00e-08
  Density threshold  = 1.00e-08
  Integral threshold = 1.00e-12

  ==> Primary Basis <==

  Basis Set: DEF2-TZVPPD
    Blend: DEF2-TZVPPD
    Number of shells: 51
    Number of basis functions: 177
    Number of Cartesian functions: 222
    Spherical Harmonics?: true
    Max angular momentum: 4

  Core potential: DEF2-TZVPPD
    Number of shells: 12
    Number of ECP primitives: 42
    Number of ECP core electrons: 180
    Max angular momentum: 3

  ==> DFT Potential <==

   => Composite Functional: MN15-D3BJ <= 

   MN15 Hybrid Meta-GGA Exchange-Correlation Functional

    H. S. Yu, X. He, S. L. Li, and D. G. Truhlar, Chem. Sci. 7, 5032-5051, 2016


    Deriv               =              1
    GGA                 =           TRUE
    Meta                =           TRUE

    Exchange Hybrid     =           TRUE
    MP2 Hybrid          =          FALSE

   => Exchange Functionals <=

    1.0000   XC_HYB_MGGA_X_MN15

   => Exact (HF) Exchange <=

    0.4400               HF 

   => Correlation Functionals <=

    1.0000   XC_MGGA_C_MN15

   => LibXC Density Thresholds  <==

    XC_MGGA_C_MN15:  1.00E-15 
    XC_HYB_MGGA_X_MN15:  1.00E-15 

   => Molecular Quadrature <=

    Radial Scheme          =       TREUTLER
    Pruning Scheme         =           NONE
    Nuclear Scheme         =       TREUTLER

    BS radius alpha        =              1
    Pruning alpha          =              1
    Radial Points          =             75
    Spherical Points       =            302
    Total Points           =          64024
    Total Blocks           =            583
    Max Points             =            256
    Max Functions          =            174
    Weights Tolerance      =       1.00E-15

   => Loading Basis Set <=

    Name: (DEF2-TZVPPD AUX)
    Role: JKFIT
    Keyword: DF_BASIS_SCF
    atoms 1-3 entry AU         line  8426 file /mnt/storage/home/zw18965/.conda/envs/p4env/share/psi4/basis/def2-universal-jkfit.gbs 

  ==> Integral Setup <==

  DFHelper Memory: AOs need 0.192 GiB; user supplied 83.192 GiB. Using in-core AOs.

  ==> MemDFJK: Density-Fitted J/K Matrices <==

    J tasked:                   Yes
    K tasked:                   Yes
    wK tasked:                   No
    OpenMP threads:              28
    Memory [MiB]:             85188
    Algorithm:                 Core
    Schwarz Cutoff:           1E-12
    Mask sparsity (%):       0.4724
    Fitting Condition:        1E-10

   => Auxiliary Basis Set <=

  Basis Set: (DEF2-TZVPPD AUX)
    Blend: DEF2-UNIVERSAL-JKFIT
    Number of shells: 153
    Number of basis functions: 741
    Number of Cartesian functions: 1095
    Spherical Harmonics?: true
    Max angular momentum: 6

  Cached 100.0% of DFT collocation blocks in 0.627 [GiB].

  Minimum eigenvalue in the overlap matrix is 1.3739312144E-03.
  Reciprocal condition number of the overlap matrix is 2.6468901334E-04.
    Using symmetric orthogonalization.

  ==> Pre-Iterations <==

  SCF Guess: Superposition of Atomic Densities via on-the-fly atomic UHF (no occupation information).

   -------------------------
    Irrep   Nso     Nmo    
   -------------------------
     A1        62      62 
     A2        28      28 
     B1        52      52 
     B2        35      35 
   -------------------------
    Total     177     177
   -------------------------

  ==> Iterations <==

                           Total Energy        Delta E     RMS |[F,P]|

   @DF-RKS iter SAD:  -405.89019714919522   -4.05890e+02   0.00000e+00 
   @DF-RKS iter   1:  -406.25359389150123   -3.63397e-01   4.60487e-03 DIIS
   @DF-RKS iter   2:  -406.20380668384178    4.97872e-02   6.63545e-03 DIIS
   @DF-RKS iter   3:  -406.31281055857374   -1.09004e-01   1.95754e-04 DIIS
   @DF-RKS iter   4:  -406.31307077905296   -2.60220e-04   1.51728e-04 DIIS
   @DF-RKS iter   5:  -406.31316577718002   -9.49981e-05   2.90505e-05 DIIS
   @DF-RKS iter   6:  -406.31317983025082   -1.40531e-05   2.01457e-05 DIIS
   @DF-RKS iter   7:  -406.31318170266360   -1.87241e-06   9.13349e-06 DIIS
   @DF-RKS iter   8:  -406.31318231136856   -6.08705e-07   1.02114e-06 DIIS
   @DF-RKS iter   9:  -406.31318233017083   -1.88023e-08   4.04458e-07 DIIS
   @DF-RKS iter  10:  -406.31318233126632   -1.09549e-09   2.14310e-07 DIIS
   @DF-RKS iter  11:  -406.31318233151876   -2.52442e-10   2.72005e-08 DIIS
   @DF-RKS iter  12:  -406.31318233153144   -1.26761e-11   9.56373e-09 DIIS
  Energy and wave function converged.


  ==> Post-Iterations <==

   Electrons on quadrature grid:
      Ntotal   =   55.9999921141 ; deviation = -7.886e-06 

    Orbital Energies [Eh]
    ---------------------

    Doubly Occupied:                                                      

       1A1    -4.319160     1B1    -4.318616     2A1    -4.318615  
       3A1    -2.533485     2B1    -2.526571     4A1    -2.526568  
       3B1    -2.520136     5A1    -2.520127     4B1    -2.519431  
       1B2    -2.518841     1A2    -2.517699     2B2    -2.517694  
       6A1    -0.645301     5B1    -0.609010     7A1    -0.609003  
       3B2    -0.602401     8A1    -0.578045     4B2    -0.569570  
       2A2    -0.569556     6B1    -0.536853     9A1    -0.536851  
       7B1    -0.531109    10A1    -0.531090     3A2    -0.528677  
       5B2    -0.527507     4A2    -0.527486    11A1    -0.523389  
       8B1    -0.496900  

    Virtual:                                                              

       9B1    -0.298961    12A1    -0.298956     6B2    -0.190796  
      13A1    -0.146670    10B1    -0.138919    14A1    -0.138917  
       7B2    -0.078501     5A2    -0.078500    11B1    -0.012649  
      15A1    -0.012647    12B1     0.004182    16A1     0.036390  
      17A1     0.060801     8B2     0.061993    13B1     0.081245  
      18A1     0.081246     6A2     0.115172     9B2     0.115174  
      19A1     0.137916    14B1     0.137919    20A1     0.152902  
      15B1     0.177282     7A2     0.181065    10B2     0.181069  
      16B1     0.193707    21A1     0.193718    11B2     0.210109  
      22A1     0.262693    17B1     0.262699     8A2     0.297549  
       9A2     0.333945    12B2     0.333945    18B1     0.343138  
      23A1     0.343141    24A1     0.357261    19B1     0.432887  
      25A1     0.432905    20B1     0.449937    26A1     0.629893  
      27A1     0.728571    13B2     0.734694    28A1     0.742592  
      21B1     0.742594    10A2     0.808121    14B2     0.808121  
      15B2     0.875450    22B1     0.904327    29A1     0.904348  
      16B2     0.923028    11A2     0.924090    17B2     0.924108  
      23B1     0.949608    30A1     0.949621    24B1     0.970858  
      18B2     0.973380    12A2     0.973393    25B1     1.043620  
      31A1     1.053982    26B1     1.053991    13A2     1.136499  
      27B1     1.151759    32A1     1.151779    33A1     1.165161  
      19B2     1.180174    14A2     1.180181    28B1     1.201046  
      34A1     1.201065    29B1     1.264030    20B2     1.286947  
      35A1     1.288409    15A2     1.301748    21B2     1.301811  
      30B1     1.335557    36A1     1.335563    37A1     1.354300  
      16A2     1.418129    31B1     1.426055    38A1     1.426071  
      17A2     1.479463    22B2     1.479506    32B1     1.659254  
      39A1     1.659268    40A1     1.841222    33B1     1.877002  
      34B1     2.356958    41A1     2.356974    42A1     3.182696  
      23B2     3.213456    24B2     3.234330    18A2     3.234366  
      25B2     3.274724    43A1     3.291912    35B1     3.291920  
      19A2     3.352710    26B2     3.352740    36B1     3.370747  
      44A1     3.385994    45A1     3.389477    37B1     3.389497  
      20A2     3.497785    38B1     3.515443    46A1     3.515488  
      27B2     3.521325    21A2     3.521362    47A1     3.607621  
      39B1     3.607628    40B1     3.668022    41B1     3.803466  
      48A1     3.803495    49A1     3.806205    28B2     3.811076  
      22A2     3.811083    29B2     3.813276    50A1     3.818848  
      42B1     3.818851    30B2     3.819325    51A1     3.819445  
      23A2     3.821905    31B2     3.821923    52A1     3.827618  
      24A2     3.827881    25A2     3.828166    32B2     3.828208  
      53A1     3.828489    43B1     3.828500    44B1     3.832180  
      26A2     3.869475    27A2     3.876860    33B2     3.876893  
      54A1     3.884223    45B1     3.884225    46B1     4.024929  
      55A1     4.024965    47B1     4.150793    34B2    26.681743  
      48B1    26.867435    56A1    26.867570    57A1    26.958352  
      35B2    27.079211    28A2    27.079332    49B1    28.631727  
      50B1    29.336504    58A1    29.336597    59A1    43.328268  
      60A1    43.855099    51B1    43.855101    61A1   204.755163  
      52B1   204.986071    62A1   204.986073  

    Final Occupation by Irrep:
             A1    A2    B1    B2 
    DOCC [    11,    4,    8,    5 ]

  @DF-RKS Final Energy:  -406.31318233153144

   => Energetics <=

    Nuclear Repulsion Energy =            220.3801497775355926
    One-Electron Energy =               -1143.4305009607492138
    Two-Electron Energy =                 538.7027262498310165
    DFT Exchange-Correlation Energy =     -21.9654223081488205
    Empirical Dispersion Energy =          -0.0001350900000000
    VV10 Nonlocal Energy =                  0.0000000000000000
    Total Energy =                       -406.3131823315314364

Computation Completed


Properties will be evaluated at   0.000000,   0.000000,   0.000000 [a0]

Properties computed using the SCF density matrix

  Nuclear Dipole Moment: [e a0]
     X:     0.0000      Y:     0.0000      Z:     0.0000

  Electronic Dipole Moment: [e a0]
     X:     0.0000      Y:     0.0000      Z:    -0.0000

  Dipole Moment: [e a0]
     X:     0.0000      Y:     0.0000      Z:    -0.0000     Total:     0.0000

  Dipole Moment: [D]
     X:     0.0000      Y:     0.0000      Z:    -0.0001     Total:     0.0001


*** tstop() called on compute088.bc4.acrc.priv at Fri Nov  5 07:21:17 2021
Module time:
	user time   =      95.97 seconds =       1.60 minutes
	system time =       4.08 seconds =       0.07 minutes
	total time  =         12 seconds =       0.20 minutes
Total time:
	user time   =      95.97 seconds =       1.60 minutes
	system time =       4.08 seconds =       0.07 minutes
	total time  =         12 seconds =       0.20 minutes

*** tstart() called on compute088.bc4.acrc.priv
*** at Fri Nov  5 07:21:17 2021


         ------------------------------------------------------------
                                   SCF GRAD                          
                          Rob Parrish, Justin Turney,                
                       Andy Simmonett, and Alex Sokolov              
         ------------------------------------------------------------

  ==> Geometry <==

    Molecular point group: c2v
    Full point group: C2v

    Geometry (in Angstrom), charge = 1, multiplicity = 1:

       Center              X                  Y                   Z               Mass       
    ------------   -----------------  -----------------  -----------------  -----------------
         AU           0.000000000000    -0.000000000000     1.501400000000   196.966568790000
         AU           1.300251000000     0.000000000000    -0.750700000000   196.966568790000
         AU          -1.300251000000    -0.000000000000    -0.750700000000   196.966568790000

  Nuclear repulsion =  220.380149777535593

  ==> Basis Set <==

  Basis Set: DEF2-TZVPPD
    Blend: DEF2-TZVPPD
    Number of shells: 51
    Number of basis functions: 177
    Number of Cartesian functions: 222
    Spherical Harmonics?: true
    Max angular momentum: 4

  Core potential: DEF2-TZVPPD
    Number of shells: 12
    Number of ECP primitives: 42
    Number of ECP core electrons: 180
    Max angular momentum: 3

  ==> DFJKGrad: Density-Fitted SCF Gradients <==

    Gradient:                    1
    J tasked:                  Yes
    K tasked:                  Yes
    wK tasked:                  No
    OpenMP threads:             28
    Integrals threads:          28
    Memory [MiB]:            85830
    Schwarz Cutoff:          1E-12
    Fitting Condition:       1E-10

   => Auxiliary Basis Set <=

  Basis Set: (DEF2-TZVPPD AUX)
    Blend: DEF2-UNIVERSAL-JKFIT
    Number of shells: 153
    Number of basis functions: 741
    Number of Cartesian functions: 1095
    Spherical Harmonics?: true
    Max angular momentum: 6

  ==> DFT Potential <==

   => Composite Functional: MN15-D3BJ <= 

   MN15 Hybrid Meta-GGA Exchange-Correlation Functional

    H. S. Yu, X. He, S. L. Li, and D. G. Truhlar, Chem. Sci. 7, 5032-5051, 2016


    Deriv               =              1
    GGA                 =           TRUE
    Meta                =           TRUE

    Exchange Hybrid     =           TRUE
    MP2 Hybrid          =          FALSE

   => Exchange Functionals <=

    1.0000   XC_HYB_MGGA_X_MN15

   => Exact (HF) Exchange <=

    0.4400               HF 

   => Correlation Functionals <=

    1.0000   XC_MGGA_C_MN15

   => LibXC Density Thresholds  <==

    XC_MGGA_C_MN15:  1.00E-15 
    XC_HYB_MGGA_X_MN15:  1.00E-15 

   => Molecular Quadrature <=

    Radial Scheme          =       TREUTLER
    Pruning Scheme         =           NONE
    Nuclear Scheme         =       TREUTLER

    BS radius alpha        =              1
    Pruning alpha          =              1
    Radial Points          =             75
    Spherical Points       =            302
    Total Points           =          64024
    Total Blocks           =            583
    Max Points             =            256
    Max Functions          =            174
    Weights Tolerance      =       1.00E-15


  -Total Gradient:
     Atom            X                  Y                   Z
    ------   -----------------  -----------------  -----------------
       1        0.000000000000     0.000000000000    -0.167389474020
       2       -0.145003903081    -0.000000000000     0.083682210987
       3        0.145003903081     0.000000000000     0.083682210987


*** tstop() called on compute088.bc4.acrc.priv at Fri Nov  5 07:21:27 2021
Module time:
	user time   =      53.91 seconds =       0.90 minutes
	system time =       2.22 seconds =       0.04 minutes
	total time  =         10 seconds =       0.17 minutes
Total time:
	user time   =     151.59 seconds =       2.53 minutes
	system time =       6.38 seconds =       0.11 minutes
	total time  =         22 seconds =       0.37 minutes


  ==> Adding ECP gradient terms (computed numerically) <==

  -ECP Gradient:
     Atom            X                  Y                   Z
    ------   -----------------  -----------------  -----------------
       1        0.000000000000    -0.000000000000     0.166037265075
       2        0.143807840350     0.000000000000    -0.083018300521
       3       -0.143807840350    -0.000000000000    -0.083018300521


  -Total Gradient:
     Atom            X                  Y                   Z
    ------   -----------------  -----------------  -----------------
       1        0.000000000000     0.000000000000    -0.001352208945
       2       -0.001196062731    -0.000000000000     0.000663910465
       3        0.001196062731     0.000000000000     0.000663910465


			-----------------------------------------
			 OPTKING 2.0: for geometry optimizations 
			  - R.A. King,  Bethel University        
			-----------------------------------------
	At level 1: Red. Int., RFO, no backsteps, dynamic trust

	Internal coordinates to be generated automatically.
	Detected frag 1 with atoms:  1 2 3
	---Fragment 1 Bond Connectivity---
	 1 : 2 3
	 2 : 1 3
	 3 : 1 2

	---Fragment 1 Geometry and Gradient---
	 AU          0.0000000000       -0.0000000000        2.8372348048
	 AU          2.4571182844        0.0000000000       -1.4186174024
	 AU         -2.4571182844       -0.0000000000       -1.4186174024
	             0.0000000000        0.0000000000       -0.0013522089
	            -0.0011960627       -0.0000000000        0.0006639105
	             0.0011960627        0.0000000000        0.0006639105

	Previous optimization step data not found.  Starting new optimization.

	---Fragment 1 Intrafragment Coordinates---
	 - Coordinate -           - BOHR/RAD -       - ANG/DEG -
	 R(1,2)           =         4.914235	       2.600501
	 R(1,3)           =         4.914235	       2.600501
	 R(2,3)           =         4.914237	       2.600502
	 B(1,2,3)         =         1.047197	      59.999991
	 B(1,3,2)         =         1.047197	      59.999991
	 B(2,1,3)         =         1.047198	      60.000018

	Current energy   :      -406.3131823315

	Generating empirical Hessian (Schlegel '84) for each fragment.
	Taking RFO optimization step.
	Going to follow RFO solution 1.
	Using RFO vector 1.
	Norm of target step-size    0.01811
	Projected energy change by RFO approximation:        -0.0000250040

	Back-transformation to cartesian coordinates...
	Successfully converged to displaced geometry.

	--- Internal Coordinate Step in ANG or DEG, aJ/ANG or AJ/DEG ---
	 ---------------------------------------------------------------------------
	   Coordinate                Previous        Force       Change         New 
	   ----------                --------       ------       ------       ------
	    1 R(1,2)          =      2.600501     0.006403     0.005481     2.605982
	    2 R(1,3)          =      2.600501     0.006403     0.005481     2.605982
	    3 R(2,3)          =      2.600502     0.006638     0.005640     2.606142
	    4 B(1,2,3)        =     59.999991    -0.000000    -0.002026    59.997965
	    5 B(1,3,2)        =     59.999991    -0.000000    -0.002026    59.997965
	    6 B(2,1,3)        =     60.000018     0.000001     0.004053    60.004070
	 ---------------------------------------------------------------------------
	Successfully symmetrized geometry.

  ==> Convergence Check <==

  Measures of convergence in internal coordinates in au.
  Criteria marked as inactive (o), active & met (*), and active & unmet ( ).
  --------------------------------------------------------------------------------------------- ~
   Step     Total Energy     Delta E     MAX Force     RMS Force      MAX Disp      RMS Disp    ~
  --------------------------------------------------------------------------------------------- ~
    Convergence Criteria    1.00e-06 *    3.00e-04 *             o    1.20e-03 *             o  ~
  --------------------------------------------------------------------------------------------- ~
      1    -406.31318233   -4.06e+02      8.06e-04      5.56e-04 o    1.07e-02      7.40e-03 o  ~
  ---------------------------------------------------------------------------------------------

	Writing optimization data to binary file.
	Structure for next step:
	Cartesian Geometry (in Angstrom)
	   AU     0.0000000000  -0.0000000000   1.5045335052
	   AU     1.3030711219   0.0000000000  -0.7522667526
	   AU    -1.3030711219  -0.0000000000  -0.7522667526
			--------------------------
			 OPTKING Finished Execution 
			--------------------------

    Structure for next step:
    Molecular point group: c2v
    Full point group: C2v

    Geometry (in Angstrom), charge = 1, multiplicity = 1:

    AU           0.000000000000     0.000000000000     1.504533511114
    AU           1.303071127032     0.000000000000    -0.752266755557
    AU          -1.303071127032    -0.000000000000    -0.752266755557


Scratch directory: /tmp/
gradient() will perform analytic gradient computation.

*** tstart() called on compute088.bc4.acrc.priv
*** at Fri Nov  5 07:24:34 2021

   => Loading Basis Set <=

    Name: DEF2-TZVPPD
    Role: ORBITAL
    Keyword: BASIS
    atoms 1-3 entry AU         line  2995 (ECP: line  4084) file /mnt/storage/home/zw18965/.conda/envs/p4env/share/psi4/basis/def2-tzvppd.gbs 

    !!!  WARNING: ECP capability is in beta. Please check occupations closely.  !!!

   => MN15-D3(BJ): Empirical Dispersion <=

    Grimme's -D3 (BJ-damping) Dispersion Correction
    Grimme S.; Ehrlich S.; Goerigk L. (2011), J. Comput. Chem., 32: 1456
    Parametrisation from:    L. Goerigk, A. Hansen, C. Bauer, S. Ehrlich, A. Najibi, S. Grimme, Phys. Chem. Chem. Phys. 19, 32184-32215, 2017

        s6 =       1.000000
        s8 =       2.097100
        a1 =       0.786200
        a2 =       7.592300


         ---------------------------------------------------------
                                   SCF
               by Justin Turney, Rob Parrish, Andy Simmonett
                          and Daniel G. A. Smith
                              RKS Reference
                       28 Threads, 114440 MiB Core
         ---------------------------------------------------------

  ==> Geometry <==

    Molecular point group: c2v
    Full point group: C2v

    Geometry (in Angstrom), charge = 1, multiplicity = 1:

       Center              X                  Y                   Z               Mass       
    ------------   -----------------  -----------------  -----------------  -----------------
         AU           0.000000000000    -0.000000000000     1.504533511114   196.966568790000
         AU           1.303071127032     0.000000000000    -0.752266755557   196.966568790000
         AU          -1.303071127032    -0.000000000000    -0.752266755557   196.966568790000

  Running in c2v symmetry.

  Rotational constants: A =      0.02521  B =      0.02520  C =      0.01260 [cm^-1]
  Rotational constants: A =    755.66567  B =    755.54170  C =    377.80184 [MHz]
  Nuclear repulsion =  219.912180135149100

  Charge       = 1
  Multiplicity = 1
  Electrons    = 56
  Nalpha       = 28
  Nbeta        = 28

  ==> Algorithm <==

  SCF Algorithm Type is DF.
  DIIS enabled.
  MOM disabled.
  Fractional occupation disabled.
  Guess Type is READ.
  Energy threshold   = 1.00e-08
  Density threshold  = 1.00e-08
  Integral threshold = 1.00e-12

  ==> Primary Basis <==

  Basis Set: DEF2-TZVPPD
    Blend: DEF2-TZVPPD
    Number of shells: 51
    Number of basis functions: 177
    Number of Cartesian functions: 222
    Spherical Harmonics?: true
    Max angular momentum: 4

  Core potential: DEF2-TZVPPD
    Number of shells: 12
    Number of ECP primitives: 42
    Number of ECP core electrons: 180
    Max angular momentum: 3

  ==> DFT Potential <==

   => Composite Functional: MN15-D3BJ <= 

   MN15 Hybrid Meta-GGA Exchange-Correlation Functional

    H. S. Yu, X. He, S. L. Li, and D. G. Truhlar, Chem. Sci. 7, 5032-5051, 2016


    Deriv               =              1
    GGA                 =           TRUE
    Meta                =           TRUE

    Exchange Hybrid     =           TRUE
    MP2 Hybrid          =          FALSE

   => Exchange Functionals <=

    1.0000   XC_HYB_MGGA_X_MN15

   => Exact (HF) Exchange <=

    0.4400               HF 

   => Correlation Functionals <=

    1.0000   XC_MGGA_C_MN15

   => LibXC Density Thresholds  <==

    XC_MGGA_C_MN15:  1.00E-15 
    XC_HYB_MGGA_X_MN15:  1.00E-15 

   => Molecular Quadrature <=

    Radial Scheme          =       TREUTLER
    Pruning Scheme         =           NONE
    Nuclear Scheme         =       TREUTLER

    BS radius alpha        =              1
    Pruning alpha          =              1
    Radial Points          =             75
    Spherical Points       =            302
    Total Points           =          64024
    Total Blocks           =            580
    Max Points             =            256
    Max Functions          =            174
    Weights Tolerance      =       1.00E-15

   => Loading Basis Set <=

    Name: (DEF2-TZVPPD AUX)
    Role: JKFIT
    Keyword: DF_BASIS_SCF
    atoms 1-3 entry AU         line  8426 file /mnt/storage/home/zw18965/.conda/envs/p4env/share/psi4/basis/def2-universal-jkfit.gbs 

   => Loading Basis Set <=

    Name: DEF2-TZVPPD
    Role: ORBITAL
    Keyword: BASIS
    atoms 1-3 entry AU         line  2995 (ECP: line  4084) file /mnt/storage/home/zw18965/.conda/envs/p4env/share/psi4/basis/def2-tzvppd.gbs 

    !!!  WARNING: ECP capability is in beta. Please check occupations closely.  !!!

  Reading orbitals from file /tmp/Au03C1_D3H.default.4178.180.npy, no projection.

  ==> Integral Setup <==

  DFHelper Memory: AOs need 0.192 GiB; user supplied 83.193 GiB. Using in-core AOs.

  ==> MemDFJK: Density-Fitted J/K Matrices <==

    J tasked:                   Yes
    K tasked:                   Yes
    wK tasked:                   No
    OpenMP threads:              28
    Memory [MiB]:             85189
    Algorithm:                 Core
    Schwarz Cutoff:           1E-12
    Mask sparsity (%):       0.4852
    Fitting Condition:        1E-10

   => Auxiliary Basis Set <=

  Basis Set: (DEF2-TZVPPD AUX)
    Blend: DEF2-UNIVERSAL-JKFIT
    Number of shells: 153
    Number of basis functions: 741
    Number of Cartesian functions: 1095
    Spherical Harmonics?: true
    Max angular momentum: 6

  Cached 100.0% of DFT collocation blocks in 0.626 [GiB].

  Minimum eigenvalue in the overlap matrix is 1.3888784273E-03.
  Reciprocal condition number of the overlap matrix is 2.6787037563E-04.
    Using symmetric orthogonalization.

  ==> Pre-Iterations <==

  SCF Guess: Orbitals guess was supplied from a previous computation.

   -------------------------------------------------------
    Irrep   Nso     Nmo     Nalpha   Nbeta   Ndocc  Nsocc
   -------------------------------------------------------
     A1        62      62      11      11      11       0
     A2        28      28       4       4       4       0
     B1        52      52       8       8       8       0
     B2        35      35       5       5       5       0
   -------------------------------------------------------
    Total     177     177      28      28      28       0
   -------------------------------------------------------

  ==> Iterations <==

                           Total Energy        Delta E     RMS |[F,P]|

   @DF-RKS iter   0:  -406.31380163742773   -4.06314e+02   2.25662e-04 
   @DF-RKS iter   1:  -406.31319115835015    6.10479e-04   8.01320e-06 DIIS
   @DF-RKS iter   2:  -406.31319130119010   -1.42840e-07   8.20257e-06 DIIS
   @DF-RKS iter   3:  -406.31319147464507   -1.73455e-07   1.20671e-06 DIIS
   @DF-RKS iter   4:  -406.31319148466866   -1.00236e-08   6.67161e-07 DIIS
   @DF-RKS iter   5:  -406.31319148757194   -2.90328e-09   3.45288e-07 DIIS
   @DF-RKS iter   6:  -406.31319148832000   -7.48059e-10   5.30761e-08 DIIS
   @DF-RKS iter   7:  -406.31319148835098   -3.09797e-11   6.06232e-08 DIIS
   @DF-RKS iter   8:  -406.31319148836587   -1.48930e-11   5.13815e-09 DIIS
  Energy and wave function converged.


  ==> Post-Iterations <==

   Electrons on quadrature grid:
      Ntotal   =   55.9999917188 ; deviation = -8.281e-06 

    Orbital Energies [Eh]
    ---------------------

    Doubly Occupied:                                                      

       1A1    -4.318915     2A1    -4.318389     1B1    -4.318387  
       3A1    -2.533050     2B1    -2.526268     4A1    -2.526262  
       3B1    -2.519960     5A1    -2.519951     4B1    -2.519258  
       1B2    -2.518618     1A2    -2.517501     2B2    -2.517498  
       6A1    -0.644197     5B1    -0.608264     7A1    -0.608241  
       3B2    -0.601641     8A1    -0.577530     4B2    -0.569151  
       2A2    -0.569148     6B1    -0.536810     9A1    -0.536800  
       7B1    -0.531098    10A1    -0.531074     3A2    -0.528715  
       5B2    -0.527548     4A2    -0.527532    11A1    -0.522948  
       8B1    -0.497199  

    Virtual:                                                              

       9B1    -0.299106    12A1    -0.299091     6B2    -0.190614  
      13A1    -0.146776    10B1    -0.139037    14A1    -0.139032  
       5A2    -0.078657     7B2    -0.078650    11B1    -0.012745  
      15A1    -0.012740    12B1     0.003887    16A1     0.036403  
      17A1     0.060809     8B2     0.062090    13B1     0.081263  
      18A1     0.081266     6A2     0.115149     9B2     0.115156  
      19A1     0.137961    14B1     0.137963    20A1     0.152742  
      15B1     0.176852     7A2     0.180922    10B2     0.180922  
      16B1     0.192985    21A1     0.193014    11B2     0.209826  
      22A1     0.262571    17B1     0.262575     8A2     0.297419  
       9A2     0.333884    12B2     0.333888    18B1     0.343140  
      23A1     0.343147    24A1     0.357314    19B1     0.432399  
      25A1     0.432425    20B1     0.449594    26A1     0.631624  
      27A1     0.729725    13B2     0.736998    21B1     0.742852  
      28A1     0.742867    10A2     0.809117    14B2     0.809151  
      15B2     0.876490    22B1     0.904173    29A1     0.904217  
      16B2     0.922607    11A2     0.923868    17B2     0.923895  
      23B1     0.949935    30A1     0.949959    24B1     0.970280  
      12A2     0.972938    18B2     0.972950    25B1     1.042762  
      31A1     1.052833    26B1     1.052852    13A2     1.134904  
      27B1     1.151028    32A1     1.151054    33A1     1.165025  
      14A2     1.179129    19B2     1.179144    28B1     1.199853  
      34A1     1.199907    29B1     1.264188    20B2     1.287470  
      35A1     1.289018    15A2     1.302132    21B2     1.302204  
      30B1     1.335450    36A1     1.335453    37A1     1.354329  
      16A2     1.417190    31B1     1.424566    38A1     1.424627  
      17A2     1.477720    22B2     1.477803    32B1     1.656035  
      39A1     1.656110    40A1     1.839102    33B1     1.871441  
      34B1     2.353552    41A1     2.353614    42A1     3.182421  
      23B2     3.213843    24B2     3.234432    18A2     3.234462  
      25B2     3.275123    35B1     3.292238    43A1     3.292248  
      19A2     3.352331    26B2     3.352384    36B1     3.370295  
      44A1     3.384455    45A1     3.387044    37B1     3.387107  
      20A2     3.496936    38B1     3.514977    46A1     3.515057  
      27B2     3.520614    21A2     3.520630    47A1     3.608470  
      39B1     3.608498    40B1     3.669158    41B1     3.804289  
      48A1     3.804329    49A1     3.806901    22A2     3.811626  
      28B2     3.811627    29B2     3.813693    42B1     3.819230  
      50A1     3.819236    30B2     3.819726    51A1     3.819939  
      23A2     3.822029    31B2     3.822052    52A1     3.827829  
      24A2     3.828034    25A2     3.828326    32B2     3.828370  
      53A1     3.828640    43B1     3.828652    44B1     3.831932  
      26A2     3.867717    27A2     3.875009    33B2     3.875078  
      45B1     3.881883    54A1     3.881937    46B1     4.020432  
      55A1     4.020560    47B1     4.143576    34B2    26.684396  
      48B1    26.866824    56A1    26.866991    57A1    26.960786  
      35B2    27.076447    28A2    27.076472    49B1    28.606337  
      50B1    29.294131    58A1    29.294957    59A1    43.326500  
      51B1    43.850748    60A1    43.850797    61A1   204.754487  
      52B1   204.984335    62A1   204.984357  

    Final Occupation by Irrep:
             A1    A2    B1    B2 
    DOCC [    11,    4,    8,    5 ]

  @DF-RKS Final Energy:  -406.31319148836587

   => Energetics <=

    Nuclear Repulsion Energy =            219.9121801351491001
    One-Electron Energy =               -1142.5114393901135372
    Two-Electron Energy =                 538.2502274997465292
    DFT Exchange-Correlation Energy =     -21.9640246431480115
    Empirical Dispersion Energy =          -0.0001350900000000
    VV10 Nonlocal Energy =                  0.0000000000000000
    Total Energy =                       -406.3131914883659306

Computation Completed


Properties will be evaluated at   0.000000,   0.000000,   0.000000 [a0]

Properties computed using the SCF density matrix

  Nuclear Dipole Moment: [e a0]
     X:    -0.0000      Y:     0.0000      Z:     0.0000

  Electronic Dipole Moment: [e a0]
     X:     0.0000      Y:     0.0000      Z:    -0.0001

  Dipole Moment: [e a0]
     X:    -0.0000      Y:     0.0000      Z:    -0.0001     Total:     0.0001

  Dipole Moment: [D]
     X:    -0.0000      Y:     0.0000      Z:    -0.0002     Total:     0.0002


*** tstop() called on compute088.bc4.acrc.priv at Fri Nov  5 07:24:41 2021
Module time:
	user time   =      75.85 seconds =       1.26 minutes
	system time =       2.39 seconds =       0.04 minutes
	total time  =          7 seconds =       0.12 minutes
Total time:
	user time   =    1380.87 seconds =      23.01 minutes
	system time =      18.79 seconds =       0.31 minutes
	total time  =        216 seconds =       3.60 minutes

*** tstart() called on compute088.bc4.acrc.priv
*** at Fri Nov  5 07:24:41 2021


         ------------------------------------------------------------
                                   SCF GRAD                          
                          Rob Parrish, Justin Turney,                
                       Andy Simmonett, and Alex Sokolov              
         ------------------------------------------------------------

  ==> Geometry <==

    Molecular point group: c2v
    Full point group: C2v

    Geometry (in Angstrom), charge = 1, multiplicity = 1:

       Center              X                  Y                   Z               Mass       
    ------------   -----------------  -----------------  -----------------  -----------------
         AU           0.000000000000     0.000000000000     1.504533511114   196.966568790000
         AU           1.303071127032     0.000000000000    -0.752266755557   196.966568790000
         AU          -1.303071127032    -0.000000000000    -0.752266755557   196.966568790000

  Nuclear repulsion =  219.912180135149185

  ==> Basis Set <==

  Basis Set: DEF2-TZVPPD
    Blend: DEF2-TZVPPD
    Number of shells: 51
    Number of basis functions: 177
    Number of Cartesian functions: 222
    Spherical Harmonics?: true
    Max angular momentum: 4

  Core potential: DEF2-TZVPPD
    Number of shells: 12
    Number of ECP primitives: 42
    Number of ECP core electrons: 180
    Max angular momentum: 3

  ==> DFJKGrad: Density-Fitted SCF Gradients <==

    Gradient:                    1
    J tasked:                  Yes
    K tasked:                  Yes
    wK tasked:                  No
    OpenMP threads:             28
    Integrals threads:          28
    Memory [MiB]:            85830
    Schwarz Cutoff:          1E-12
    Fitting Condition:       1E-10

   => Auxiliary Basis Set <=

  Basis Set: (DEF2-TZVPPD AUX)
    Blend: DEF2-UNIVERSAL-JKFIT
    Number of shells: 153
    Number of basis functions: 741
    Number of Cartesian functions: 1095
    Spherical Harmonics?: true
    Max angular momentum: 6

  ==> DFT Potential <==

   => Composite Functional: MN15-D3BJ <= 

   MN15 Hybrid Meta-GGA Exchange-Correlation Functional

    H. S. Yu, X. He, S. L. Li, and D. G. Truhlar, Chem. Sci. 7, 5032-5051, 2016


    Deriv               =              1
    GGA                 =           TRUE
    Meta                =           TRUE

    Exchange Hybrid     =           TRUE
    MP2 Hybrid          =          FALSE

   => Exchange Functionals <=

    1.0000   XC_HYB_MGGA_X_MN15

   => Exact (HF) Exchange <=

    0.4400               HF 

   => Correlation Functionals <=

    1.0000   XC_MGGA_C_MN15

   => LibXC Density Thresholds  <==

    XC_MGGA_C_MN15:  1.00E-15 
    XC_HYB_MGGA_X_MN15:  1.00E-15 

   => Molecular Quadrature <=

    Radial Scheme          =       TREUTLER
    Pruning Scheme         =           NONE
    Nuclear Scheme         =       TREUTLER

    BS radius alpha        =              1
    Pruning alpha          =              1
    Radial Points          =             75
    Spherical Points       =            302
    Total Points           =          64024
    Total Blocks           =            580
    Max Points             =            256
    Max Functions          =            174
    Weights Tolerance      =       1.00E-15


  -Total Gradient:
     Atom            X                  Y                   Z
    ------   -----------------  -----------------  -----------------
       1        0.000000000000     0.000000000000    -0.164023399554
       2       -0.142031036800    -0.000000000000     0.082000536067
       3        0.142031036800     0.000000000000     0.082000536067


*** tstop() called on compute088.bc4.acrc.priv at Fri Nov  5 07:24:50 2021
Module time:
	user time   =      51.14 seconds =       0.85 minutes
	system time =       1.51 seconds =       0.03 minutes
	total time  =          9 seconds =       0.15 minutes
Total time:
	user time   =    1434.89 seconds =      23.91 minutes
	system time =      20.43 seconds =       0.34 minutes
	total time  =        225 seconds =       3.75 minutes


  ==> Adding ECP gradient terms (computed numerically) <==

  -ECP Gradient:
     Atom            X                  Y                   Z
    ------   -----------------  -----------------  -----------------
       1        0.000000000000     0.000000000000     0.164135186237
       2        0.142119169642     0.000000000000    -0.082067594134
       3       -0.142119169642    -0.000000000000    -0.082067594134


  -Total Gradient:
     Atom            X                  Y                   Z
    ------   -----------------  -----------------  -----------------
       1        0.000000000000     0.000000000000     0.000111786683
       2        0.000088132841     0.000000000000    -0.000067058066
       3       -0.000088132841    -0.000000000000    -0.000067058066


			-----------------------------------------
			 OPTKING 2.0: for geometry optimizations 
			  - R.A. King,  Bethel University        
			-----------------------------------------
	At level 1: Red. Int., RFO, no backsteps, dynamic trust

	Previous internal coordinate definitions found.
	---Fragment 1 Geometry and Gradient---
	 AU          0.0000000000        0.0000000000        2.8431562826
	 AU          2.4624475521        0.0000000000       -1.4215781413
	 AU         -2.4624475521       -0.0000000000       -1.4215781413
	             0.0000000000        0.0000000000        0.0001117867
	             0.0000881328        0.0000000000       -0.0000670581
	            -0.0000881328       -0.0000000000       -0.0000670581

	---Fragment 1 Intrafragment Coordinates---
	 - Coordinate -           - BOHR/RAD -       - ANG/DEG -
	 R(1,2)           =         4.924592	       2.605982
	 R(1,3)           =         4.924592	       2.605982
	 R(2,3)           =         4.924895	       2.606142
	 B(1,2,3)         =         1.047162	      59.997965
	 B(1,3,2)         =         1.047162	      59.997965
	 B(2,1,3)         =         1.047269	      60.004070

	Current energy   :      -406.3131914884

	Energy change for the previous step:
		Projected    :        -0.0000250040
		Actual       :        -0.0000091568

	Performing BFGS update.
	Previous computed or guess Hessian on step 1.
	Steps to be used in Hessian update: 1
	Taking RFO optimization step.
	Going to follow RFO solution 1.
	Using RFO vector 1.
	Norm of target step-size    0.00136
	Projected energy change by RFO approximation:        -0.0000001381

	Back-transformation to cartesian coordinates...
	Successfully converged to displaced geometry.

	--- Internal Coordinate Step in ANG or DEG, aJ/ANG or AJ/DEG ---
	 ---------------------------------------------------------------------------
	   Coordinate                Previous        Force       Change         New 
	   ----------                --------       ------       ------       ------
	    1 R(1,2)          =      2.605982    -0.000563    -0.000438     2.605544
	    2 R(1,3)          =      2.605982    -0.000563    -0.000438     2.605544
	    3 R(2,3)          =      2.606142    -0.000452    -0.000368     2.605774
	    4 B(1,2,3)        =     59.997965    -0.000000    -0.000886    59.997079
	    5 B(1,3,2)        =     59.997965    -0.000000    -0.000886    59.997079
	    6 B(2,1,3)        =     60.004070     0.000000     0.001771    60.005842
	 ---------------------------------------------------------------------------
	Successfully symmetrized geometry.

  ==> Convergence Check <==

  Measures of convergence in internal coordinates in au.
  Criteria marked as inactive (o), active & met (*), and active & unmet ( ).
  ---------------------------------------------------------------------------------------------
   Step     Total Energy     Delta E     MAX Force     RMS Force      MAX Disp      RMS Disp   
  ---------------------------------------------------------------------------------------------
    Convergence Criteria    1.00e-06 *    3.00e-04 *             o    1.20e-03 *             o
  ---------------------------------------------------------------------------------------------
      2    -406.31319149   -9.16e-06      6.83e-05 *    4.54e-05 o    8.28e-04 *    5.56e-04 o  ~
  ---------------------------------------------------------------------------------------------


  **** Optimization is complete! (in 2 steps) ****

  ==> Optimization Summary <==

  Measures of convergence in internal coordinates in au.
  --------------------------------------------------------------------------------------------------------------- ~
   Step         Total Energy             Delta E       MAX Force       RMS Force        MAX Disp        RMS Disp  ~
  --------------------------------------------------------------------------------------------------------------- ~
      1    -406.313182331531   -406.313182331531      0.00080570      0.00055637      0.01065854      0.00739528  ~
      2    -406.313191488366     -0.000009156834      0.00006828      0.00004536      0.00082774      0.00055619  ~
  --------------------------------------------------------------------------------------------------------------- ~

	Writing optimization data to binary file.
	Final energy is   -406.3131914883659
	Final (previous) structure:
	Cartesian Geometry (in Angstrom)
	   AU     0.0000000000   0.0000000000   1.5045335052
	   AU     1.3030711219   0.0000000000  -0.7522667526
	   AU    -1.3030711219  -0.0000000000  -0.7522667526
	Saving final (previous) structure.
	Cleaning optimization helper files.
			--------------------------
			 OPTKING Finished Execution 
			--------------------------

    Final optimized geometry and variables:
    Molecular point group: c2v
    Full point group: C2v

    Geometry (in Angstrom), charge = 1, multiplicity = 1:

    AU           0.000000000000     0.000000000000     1.504533511114
    AU           1.303071127032     0.000000000000    -0.752266755557
    AU          -1.303071127032    -0.000000000000    -0.752266755557

	Removing binary optimization data file.
	Cleaning optimization helper files.

Scratch directory: /tmp/
gradient() will perform analytic gradient computation.

*** tstart() called on compute088.bc4.acrc.priv
*** at Fri Nov  5 07:27:57 2021

   => Loading Basis Set <=

    Name: DEF2-TZVPPD
    Role: ORBITAL
    Keyword: BASIS
    atoms 1-3 entry AU         line  2995 (ECP: line  4084) file /mnt/storage/home/zw18965/.conda/envs/p4env/share/psi4/basis/def2-tzvppd.gbs 

    !!!  WARNING: ECP capability is in beta. Please check occupations closely.  !!!

   => MN15-D3(BJ): Empirical Dispersion <=

    Grimme's -D3 (BJ-damping) Dispersion Correction
    Grimme S.; Ehrlich S.; Goerigk L. (2011), J. Comput. Chem., 32: 1456
    Parametrisation from:    L. Goerigk, A. Hansen, C. Bauer, S. Ehrlich, A. Najibi, S. Grimme, Phys. Chem. Chem. Phys. 19, 32184-32215, 2017

        s6 =       1.000000
        s8 =       2.097100
        a1 =       0.786200
        a2 =       7.592300


         ---------------------------------------------------------
                                   SCF
               by Justin Turney, Rob Parrish, Andy Simmonett
                          and Daniel G. A. Smith
                              RKS Reference
                       28 Threads, 114440 MiB Core
         ---------------------------------------------------------

  ==> Geometry <==

    Molecular point group: c2v
    Full point group: C2v

    Geometry (in Angstrom), charge = 1, multiplicity = 1:

       Center              X                  Y                   Z               Mass       
    ------------   -----------------  -----------------  -----------------  -----------------
         AU           0.000000000000     0.000000000000     1.504533511114   196.966568790000
         AU           1.303071127032     0.000000000000    -0.752266755557   196.966568790000
         AU          -1.303071127032    -0.000000000000    -0.752266755557   196.966568790000

  Running in c2v symmetry.

  Rotational constants: A =      0.02521  B =      0.02520  C =      0.01260 [cm^-1]
  Rotational constants: A =    755.66567  B =    755.54170  C =    377.80184 [MHz]
  Nuclear repulsion =  219.912180135149271

  Charge       = 1
  Multiplicity = 1
  Electrons    = 56
  Nalpha       = 28
  Nbeta        = 28

  ==> Algorithm <==

  SCF Algorithm Type is DF.
  DIIS enabled.
  MOM disabled.
  Fractional occupation disabled.
  Guess Type is SAD.
  Energy threshold   = 1.00e-08
  Density threshold  = 1.00e-08
  Integral threshold = 1.00e-12

  ==> Primary Basis <==

  Basis Set: DEF2-TZVPPD
    Blend: DEF2-TZVPPD
    Number of shells: 51
    Number of basis functions: 177
    Number of Cartesian functions: 222
    Spherical Harmonics?: true
    Max angular momentum: 4

  Core potential: DEF2-TZVPPD
    Number of shells: 12
    Number of ECP primitives: 42
    Number of ECP core electrons: 180
    Max angular momentum: 3

  ==> DFT Potential <==

   => Composite Functional: MN15-D3BJ <= 

   MN15 Hybrid Meta-GGA Exchange-Correlation Functional

    H. S. Yu, X. He, S. L. Li, and D. G. Truhlar, Chem. Sci. 7, 5032-5051, 2016


    Deriv               =              1
    GGA                 =           TRUE
    Meta                =           TRUE

    Exchange Hybrid     =           TRUE
    MP2 Hybrid          =          FALSE

   => Exchange Functionals <=

    1.0000   XC_HYB_MGGA_X_MN15

   => Exact (HF) Exchange <=

    0.4400               HF 

   => Correlation Functionals <=

    1.0000   XC_MGGA_C_MN15

   => LibXC Density Thresholds  <==

    XC_MGGA_C_MN15:  1.00E-15 
    XC_HYB_MGGA_X_MN15:  1.00E-15 

   => Molecular Quadrature <=

    Radial Scheme          =       TREUTLER
    Pruning Scheme         =           NONE
    Nuclear Scheme         =       TREUTLER

    BS radius alpha        =              1
    Pruning alpha          =              1
    Radial Points          =             75
    Spherical Points       =            302
    Total Points           =          64024
    Total Blocks           =            580
    Max Points             =            256
    Max Functions          =            174
    Weights Tolerance      =       1.00E-15

   => Loading Basis Set <=

    Name: (DEF2-TZVPPD AUX)
    Role: JKFIT
    Keyword: DF_BASIS_SCF
    atoms 1-3 entry AU         line  8426 file /mnt/storage/home/zw18965/.conda/envs/p4env/share/psi4/basis/def2-universal-jkfit.gbs 

  ==> Integral Setup <==

  DFHelper Memory: AOs need 0.192 GiB; user supplied 83.192 GiB. Using in-core AOs.

  ==> MemDFJK: Density-Fitted J/K Matrices <==

    J tasked:                   Yes
    K tasked:                   Yes
    wK tasked:                   No
    OpenMP threads:              28
    Memory [MiB]:             85188
    Algorithm:                 Core
    Schwarz Cutoff:           1E-12
    Mask sparsity (%):       0.4852
    Fitting Condition:        1E-10

   => Auxiliary Basis Set <=

  Basis Set: (DEF2-TZVPPD AUX)
    Blend: DEF2-UNIVERSAL-JKFIT
    Number of shells: 153
    Number of basis functions: 741
    Number of Cartesian functions: 1095
    Spherical Harmonics?: true
    Max angular momentum: 6

  Cached 100.0% of DFT collocation blocks in 0.627 [GiB].

  Minimum eigenvalue in the overlap matrix is 1.3888784273E-03.
  Reciprocal condition number of the overlap matrix is 2.6787037563E-04.
    Using symmetric orthogonalization.

  ==> Pre-Iterations <==

  SCF Guess: Superposition of Atomic Densities via on-the-fly atomic UHF (no occupation information).

   -------------------------
    Irrep   Nso     Nmo    
   -------------------------
     A1        62      62 
     A2        28      28 
     B1        52      52 
     B2        35      35 
   -------------------------
    Total     177     177
   -------------------------

  ==> Iterations <==

                           Total Energy        Delta E     RMS |[F,P]|

   @DF-RKS iter SAD:  -405.91099650247787   -4.05911e+02   0.00000e+00 
   @DF-RKS iter   1:  -406.25511533053157   -3.44119e-01   4.54428e-03 DIIS
   @DF-RKS iter   2:  -406.20718073729489    4.79346e-02   6.52978e-03 DIIS
   @DF-RKS iter   3:  -406.31283880623022   -1.05658e-01   2.00303e-04 DIIS
   @DF-RKS iter   4:  -406.31308470546384   -2.45899e-04   1.52656e-04 DIIS
   @DF-RKS iter   5:  -406.31317653907962   -9.18336e-05   2.77675e-05 DIIS
   @DF-RKS iter   6:  -406.31318986104992   -1.33220e-05   1.40873e-05 DIIS
   @DF-RKS iter   7:  -406.31319095669335   -1.09564e-06   9.70030e-06 DIIS
   @DF-RKS iter   8:  -406.31319146928610   -5.12593e-07   1.08693e-06 DIIS
   @DF-RKS iter   9:  -406.31319148723099   -1.79449e-08   3.84042e-07 DIIS
   @DF-RKS iter  10:  -406.31319148849479   -1.26380e-09   1.30947e-07 DIIS
   @DF-RKS iter  11:  -406.31319148864418   -1.49385e-10   4.49187e-08 DIIS
   @DF-RKS iter  12:  -406.31319148865509   -1.09139e-11   1.81878e-08 DIIS
   @DF-RKS iter  13:  -406.31319148865839   -3.29692e-12   4.47537e-09 DIIS
  Energy and wave function converged.


  ==> Post-Iterations <==

   Electrons on quadrature grid:
      Ntotal   =   55.9999917188 ; deviation = -8.281e-06 

    Orbital Energies [Eh]
    ---------------------

    Doubly Occupied:                                                      

       1A1    -4.318915     2A1    -4.318389     1B1    -4.318387  
       3A1    -2.533050     2B1    -2.526268     4A1    -2.526262  
       3B1    -2.519960     5A1    -2.519951     4B1    -2.519258  
       1B2    -2.518618     1A2    -2.517501     2B2    -2.517498  
       6A1    -0.644197     5B1    -0.608264     7A1    -0.608241  
       3B2    -0.601641     8A1    -0.577530     4B2    -0.569151  
       2A2    -0.569148     6B1    -0.536810     9A1    -0.536800  
       7B1    -0.531098    10A1    -0.531074     3A2    -0.528715  
       5B2    -0.527548     4A2    -0.527532    11A1    -0.522948  
       8B1    -0.497199  

    Virtual:                                                              

       9B1    -0.299106    12A1    -0.299091     6B2    -0.190614  
      13A1    -0.146776    10B1    -0.139037    14A1    -0.139032  
       5A2    -0.078657     7B2    -0.078650    11B1    -0.012745  
      15A1    -0.012740    12B1     0.003887    16A1     0.036403  
      17A1     0.060809     8B2     0.062090    13B1     0.081263  
      18A1     0.081266     6A2     0.115149     9B2     0.115156  
      19A1     0.137961    14B1     0.137963    20A1     0.152742  
      15B1     0.176852     7A2     0.180922    10B2     0.180922  
      16B1     0.192985    21A1     0.193014    11B2     0.209826  
      22A1     0.262571    17B1     0.262575     8A2     0.297419  
       9A2     0.333884    12B2     0.333888    18B1     0.343140  
      23A1     0.343147    24A1     0.357314    19B1     0.432399  
      25A1     0.432425    20B1     0.449594    26A1     0.631624  
      27A1     0.729726    13B2     0.736998    21B1     0.742852  
      28A1     0.742867    10A2     0.809118    14B2     0.809151  
      15B2     0.876490    22B1     0.904173    29A1     0.904217  
      16B2     0.922607    11A2     0.923868    17B2     0.923895  
      23B1     0.949935    30A1     0.949959    24B1     0.970280  
      12A2     0.972938    18B2     0.972950    25B1     1.042762  
      31A1     1.052833    26B1     1.052852    13A2     1.134904  
      27B1     1.151028    32A1     1.151054    33A1     1.165025  
      14A2     1.179129    19B2     1.179144    28B1     1.199853  
      34A1     1.199907    29B1     1.264188    20B2     1.287470  
      35A1     1.289018    15A2     1.302132    21B2     1.302204  
      30B1     1.335450    36A1     1.335453    37A1     1.354329  
      16A2     1.417190    31B1     1.424566    38A1     1.424627  
      17A2     1.477720    22B2     1.477803    32B1     1.656035  
      39A1     1.656110    40A1     1.839102    33B1     1.871441  
      34B1     2.353552    41A1     2.353614    42A1     3.182421  
      23B2     3.213843    24B2     3.234432    18A2     3.234462  
      25B2     3.275123    35B1     3.292238    43A1     3.292248  
      19A2     3.352331    26B2     3.352384    36B1     3.370295  
      44A1     3.384455    45A1     3.387044    37B1     3.387107  
      20A2     3.496936    38B1     3.514977    46A1     3.515057  
      27B2     3.520614    21A2     3.520630    47A1     3.608470  
      39B1     3.608498    40B1     3.669158    41B1     3.804289  
      48A1     3.804329    49A1     3.806901    22A2     3.811626  
      28B2     3.811627    29B2     3.813693    42B1     3.819230  
      50A1     3.819236    30B2     3.819726    51A1     3.819939  
      23A2     3.822029    31B2     3.822052    52A1     3.827829  
      24A2     3.828034    25A2     3.828326    32B2     3.828370  
      53A1     3.828640    43B1     3.828652    44B1     3.831932  
      26A2     3.867717    27A2     3.875009    33B2     3.875078  
      45B1     3.881883    54A1     3.881937    46B1     4.020432  
      55A1     4.020560    47B1     4.143576    34B2    26.684396  
      48B1    26.866824    56A1    26.866991    57A1    26.960786  
      35B2    27.076447    28A2    27.076472    49B1    28.606337  
      50B1    29.294131    58A1    29.294957    59A1    43.326500  
      51B1    43.850748    60A1    43.850797    61A1   204.754487  
      52B1   204.984335    62A1   204.984357  

    Final Occupation by Irrep:
             A1    A2    B1    B2 
    DOCC [    11,    4,    8,    5 ]

  @DF-RKS Final Energy:  -406.31319148865839

   => Energetics <=

    Nuclear Repulsion Energy =            219.9121801351492707
    One-Electron Energy =               -1142.5114432028078681
    Two-Electron Energy =                 538.2502314164411246
    DFT Exchange-Correlation Energy =     -21.9640247474409485
    Empirical Dispersion Energy =          -0.0001350900000000
    VV10 Nonlocal Energy =                  0.0000000000000000
    Total Energy =                       -406.3131914886584468

Computation Completed


Properties will be evaluated at   0.000000,   0.000000,   0.000000 [a0]

Properties computed using the SCF density matrix

  Nuclear Dipole Moment: [e a0]
     X:     0.0000      Y:     0.0000      Z:    -0.0000

  Electronic Dipole Moment: [e a0]
     X:     0.0000      Y:     0.0000      Z:    -0.0001

  Dipole Moment: [e a0]
     X:     0.0000      Y:     0.0000      Z:    -0.0001     Total:     0.0001

  Dipole Moment: [D]
     X:     0.0000      Y:     0.0000      Z:    -0.0002     Total:     0.0002


*** tstop() called on compute088.bc4.acrc.priv at Fri Nov  5 07:28:06 2021
Module time:
	user time   =      95.69 seconds =       1.59 minutes
	system time =       2.90 seconds =       0.05 minutes
	total time  =          9 seconds =       0.15 minutes
Total time:
	user time   =    2686.84 seconds =      44.78 minutes
	system time =      32.96 seconds =       0.55 minutes
	total time  =        421 seconds =       7.02 minutes

*** tstart() called on compute088.bc4.acrc.priv
*** at Fri Nov  5 07:28:06 2021


         ------------------------------------------------------------
                                   SCF GRAD                          
                          Rob Parrish, Justin Turney,                
                       Andy Simmonett, and Alex Sokolov              
         ------------------------------------------------------------

  ==> Geometry <==

    Molecular point group: c2v
    Full point group: C2v

    Geometry (in Angstrom), charge = 1, multiplicity = 1:

       Center              X                  Y                   Z               Mass       
    ------------   -----------------  -----------------  -----------------  -----------------
         AU           0.000000000000     0.000000000000     1.504533511114   196.966568790000
         AU           1.303071127032     0.000000000000    -0.752266755557   196.966568790000
         AU          -1.303071127032    -0.000000000000    -0.752266755557   196.966568790000

  Nuclear repulsion =  219.912180135149271

  ==> Basis Set <==

  Basis Set: DEF2-TZVPPD
    Blend: DEF2-TZVPPD
    Number of shells: 51
    Number of basis functions: 177
    Number of Cartesian functions: 222
    Spherical Harmonics?: true
    Max angular momentum: 4

  Core potential: DEF2-TZVPPD
    Number of shells: 12
    Number of ECP primitives: 42
    Number of ECP core electrons: 180
    Max angular momentum: 3

  ==> DFJKGrad: Density-Fitted SCF Gradients <==

    Gradient:                    1
    J tasked:                  Yes
    K tasked:                  Yes
    wK tasked:                  No
    OpenMP threads:             28
    Integrals threads:          28
    Memory [MiB]:            85830
    Schwarz Cutoff:          1E-12
    Fitting Condition:       1E-10

   => Auxiliary Basis Set <=

  Basis Set: (DEF2-TZVPPD AUX)
    Blend: DEF2-UNIVERSAL-JKFIT
    Number of shells: 153
    Number of basis functions: 741
    Number of Cartesian functions: 1095
    Spherical Harmonics?: true
    Max angular momentum: 6

  ==> DFT Potential <==

   => Composite Functional: MN15-D3BJ <= 

   MN15 Hybrid Meta-GGA Exchange-Correlation Functional

    H. S. Yu, X. He, S. L. Li, and D. G. Truhlar, Chem. Sci. 7, 5032-5051, 2016


    Deriv               =              1
    GGA                 =           TRUE
    Meta                =           TRUE

    Exchange Hybrid     =           TRUE
    MP2 Hybrid          =          FALSE

   => Exchange Functionals <=

    1.0000   XC_HYB_MGGA_X_MN15

   => Exact (HF) Exchange <=

    0.4400               HF 

   => Correlation Functionals <=

    1.0000   XC_MGGA_C_MN15

   => LibXC Density Thresholds  <==

    XC_MGGA_C_MN15:  1.00E-15 
    XC_HYB_MGGA_X_MN15:  1.00E-15 

   => Molecular Quadrature <=

    Radial Scheme          =       TREUTLER
    Pruning Scheme         =           NONE
    Nuclear Scheme         =       TREUTLER

    BS radius alpha        =              1
    Pruning alpha          =              1
    Radial Points          =             75
    Spherical Points       =            302
    Total Points           =          64024
    Total Blocks           =            580
    Max Points             =            256
    Max Functions          =            174
    Weights Tolerance      =       1.00E-15


  -Total Gradient:
     Atom            X                  Y                   Z
    ------   -----------------  -----------------  -----------------
       1        0.000000000000     0.000000000000    -0.164023415013
       2       -0.142031045451    -0.000000000000     0.082000543800
       3        0.142031045451     0.000000000000     0.082000543800


*** tstop() called on compute088.bc4.acrc.priv at Fri Nov  5 07:28:16 2021
Module time:
	user time   =      51.80 seconds =       0.86 minutes
	system time =       1.49 seconds =       0.02 minutes
	total time  =         10 seconds =       0.17 minutes
Total time:
	user time   =    2741.65 seconds =      45.69 minutes
	system time =      34.59 seconds =       0.58 minutes
	total time  =        431 seconds =       7.18 minutes


  ==> Adding ECP gradient terms (computed numerically) <==

  -ECP Gradient:
     Atom            X                  Y                   Z
    ------   -----------------  -----------------  -----------------
       1        0.000000000000    -0.000000000000     0.164135195024
       2        0.142119173182     0.000000000000    -0.082067598228
       3       -0.142119173182    -0.000000000000    -0.082067598228


  -Total Gradient:
     Atom            X                  Y                   Z
    ------   -----------------  -----------------  -----------------
       1        0.000000000000     0.000000000000     0.000111780010
       2        0.000088127731     0.000000000000    -0.000067054428
       3       -0.000088127731    -0.000000000000    -0.000067054428


  Based on options and gradient (rms=6.41E-05), recommend projecting translations and projecting rotations.
hessian() will perform frequency computation by finite difference of analytic gradients.

         ----------------------------------------------------------
                                   FINDIF
                     R. A. King and Jonathon Misiewicz
         ---------------------------------------------------------

  Using finite-differences of gradients to determine vibrational frequencies and 
  normal modes. Resulting frequencies are only valid at stationary points.
    Generating geometries for use with 3-point formula.
    Displacement size will be 5.00e-03.
    Number of atoms is 3.
    Number of irreps is 4.
    Number of SALCs is 3.
    Translations projected? 1. Rotations projected? 1.
    Index of SALCs per irrep:
     1 :  0  1 
     2 : 
     3 :  2 
     4 : 
    Number of SALCs per irrep:
     Irrep 1: 2
     Irrep 2: 0
     Irrep 3: 1
     Irrep 4: 0
    Number of geometries (including reference) is 6.
    Number of displacements per irrep:
      Irrep 1: 4
      Irrep 2: 0
      Irrep 3: 1
      Irrep 4: 0

  //>>>>>>>>>>>>>>>>>>>>>>>>>>>>>>>>>>>//
  //    Loading displacement 1 of 6    //
  //<<<<<<<<<<<<<<<<<<<<<<<<<<<<<<<<<<<//

Scratch directory: /tmp/
gradient() will perform analytic gradient computation.

*** tstart() called on compute088.bc4.acrc.priv
*** at Fri Nov  5 07:31:22 2021

   => Loading Basis Set <=

    Name: DEF2-TZVPPD
    Role: ORBITAL
    Keyword: BASIS
    atoms 1-3 entry AU         line  2995 (ECP: line  4084) file /mnt/storage/home/zw18965/.conda/envs/p4env/share/psi4/basis/def2-tzvppd.gbs 

    !!!  WARNING: ECP capability is in beta. Please check occupations closely.  !!!

   => MN15-D3(BJ): Empirical Dispersion <=

    Grimme's -D3 (BJ-damping) Dispersion Correction
    Grimme S.; Ehrlich S.; Goerigk L. (2011), J. Comput. Chem., 32: 1456
    Parametrisation from:    L. Goerigk, A. Hansen, C. Bauer, S. Ehrlich, A. Najibi, S. Grimme, Phys. Chem. Chem. Phys. 19, 32184-32215, 2017

        s6 =       1.000000
        s8 =       2.097100
        a1 =       0.786200
        a2 =       7.592300


         ---------------------------------------------------------
                                   SCF
               by Justin Turney, Rob Parrish, Andy Simmonett
                          and Daniel G. A. Smith
                              RKS Reference
                       28 Threads, 114440 MiB Core
         ---------------------------------------------------------

  ==> Geometry <==

    Molecular point group: c2v
    Full point group: C2v

    Geometry (in Angstrom), charge = 1, multiplicity = 1:

       Center              X                  Y                   Z               Mass       
    ------------   -----------------  -----------------  -----------------  -----------------
         AU           0.000000000000     0.000000000000     1.504533511114   196.966568790000
         AU           1.303071127032     0.000000000000    -0.752266755557   196.966568790000
         AU          -1.303071127032    -0.000000000000    -0.752266755557   196.966568790000

  Running in c2v symmetry.

  Rotational constants: A =      0.02521  B =      0.02520  C =      0.01260 [cm^-1]
  Rotational constants: A =    755.66567  B =    755.54170  C =    377.80184 [MHz]
  Nuclear repulsion =  219.912180135149271

  Charge       = 1
  Multiplicity = 1
  Electrons    = 56
  Nalpha       = 28
  Nbeta        = 28

  ==> Algorithm <==

  SCF Algorithm Type is DF.
  DIIS enabled.
  MOM disabled.
  Fractional occupation disabled.
  Guess Type is SAD.
  Energy threshold   = 1.00e-08
  Density threshold  = 1.00e-08
  Integral threshold = 1.00e-12

  ==> Primary Basis <==

  Basis Set: DEF2-TZVPPD
    Blend: DEF2-TZVPPD
    Number of shells: 51
    Number of basis functions: 177
    Number of Cartesian functions: 222
    Spherical Harmonics?: true
    Max angular momentum: 4

  Core potential: DEF2-TZVPPD
    Number of shells: 12
    Number of ECP primitives: 42
    Number of ECP core electrons: 180
    Max angular momentum: 3

  ==> DFT Potential <==

   => Composite Functional: MN15-D3BJ <= 

   MN15 Hybrid Meta-GGA Exchange-Correlation Functional

    H. S. Yu, X. He, S. L. Li, and D. G. Truhlar, Chem. Sci. 7, 5032-5051, 2016


    Deriv               =              1
    GGA                 =           TRUE
    Meta                =           TRUE

    Exchange Hybrid     =           TRUE
    MP2 Hybrid          =          FALSE

   => Exchange Functionals <=

    1.0000   XC_HYB_MGGA_X_MN15

   => Exact (HF) Exchange <=

    0.4400               HF 

   => Correlation Functionals <=

    1.0000   XC_MGGA_C_MN15

   => LibXC Density Thresholds  <==

    XC_MGGA_C_MN15:  1.00E-15 
    XC_HYB_MGGA_X_MN15:  1.00E-15 

   => Molecular Quadrature <=

    Radial Scheme          =       TREUTLER
    Pruning Scheme         =           NONE
    Nuclear Scheme         =       TREUTLER

    BS radius alpha        =              1
    Pruning alpha          =              1
    Radial Points          =             75
    Spherical Points       =            302
    Total Points           =          64024
    Total Blocks           =            580
    Max Points             =            256
    Max Functions          =            174
    Weights Tolerance      =       1.00E-15

   => Loading Basis Set <=

    Name: (DEF2-TZVPPD AUX)
    Role: JKFIT
    Keyword: DF_BASIS_SCF
    atoms 1-3 entry AU         line  8426 file /mnt/storage/home/zw18965/.conda/envs/p4env/share/psi4/basis/def2-universal-jkfit.gbs 

  ==> Integral Setup <==

  DFHelper Memory: AOs need 0.192 GiB; user supplied 83.192 GiB. Using in-core AOs.

  ==> MemDFJK: Density-Fitted J/K Matrices <==

    J tasked:                   Yes
    K tasked:                   Yes
    wK tasked:                   No
    OpenMP threads:              28
    Memory [MiB]:             85188
    Algorithm:                 Core
    Schwarz Cutoff:           1E-12
    Mask sparsity (%):       0.4852
    Fitting Condition:        1E-10

   => Auxiliary Basis Set <=

  Basis Set: (DEF2-TZVPPD AUX)
    Blend: DEF2-UNIVERSAL-JKFIT
    Number of shells: 153
    Number of basis functions: 741
    Number of Cartesian functions: 1095
    Spherical Harmonics?: true
    Max angular momentum: 6

  Cached 100.0% of DFT collocation blocks in 0.627 [GiB].

  Minimum eigenvalue in the overlap matrix is 1.3888784273E-03.
  Reciprocal condition number of the overlap matrix is 2.6787037563E-04.
    Using symmetric orthogonalization.

  ==> Pre-Iterations <==

  SCF Guess: Superposition of Atomic Densities via on-the-fly atomic UHF (no occupation information).

   -------------------------
    Irrep   Nso     Nmo    
   -------------------------
     A1        62      62 
     A2        28      28 
     B1        52      52 
     B2        35      35 
   -------------------------
    Total     177     177
   -------------------------

  ==> Iterations <==

                           Total Energy        Delta E     RMS |[F,P]|

   @DF-RKS iter SAD:  -405.90584599703828   -4.05906e+02   0.00000e+00 
   @DF-RKS iter   1:  -406.25493836223910   -3.49092e-01   4.55181e-03 DIIS
   @DF-RKS iter   2:  -406.20676567985191    4.81727e-02   6.54279e-03 DIIS
   @DF-RKS iter   3:  -406.31284006846096   -1.06074e-01   1.98491e-04 DIIS
   @DF-RKS iter   4:  -406.31308566599796   -2.45598e-04   1.51766e-04 DIIS
   @DF-RKS iter   5:  -406.31317676235921   -9.10964e-05   2.68237e-05 DIIS
   @DF-RKS iter   6:  -406.31319027431942   -1.35120e-05   9.33474e-06 DIIS
   @DF-RKS iter   7:  -406.31319139316048   -1.11884e-06   4.01207e-06 DIIS
   @DF-RKS iter   8:  -406.31319146514898   -7.19885e-08   1.94306e-06 DIIS
   @DF-RKS iter   9:  -406.31319148720053   -2.20516e-08   4.17365e-07 DIIS
   @DF-RKS iter  10:  -406.31319148844943   -1.24891e-09   1.75876e-07 DIIS
   @DF-RKS iter  11:  -406.31319148863997   -1.90539e-10   5.31927e-08 DIIS
   @DF-RKS iter  12:  -406.31319148865492   -1.49498e-11   1.61094e-08 DIIS
   @DF-RKS iter  13:  -406.31319148865862   -3.69482e-12   4.39100e-09 DIIS
  Energy and wave function converged.


  ==> Post-Iterations <==

   Electrons on quadrature grid:
      Ntotal   =   55.9999917188 ; deviation = -8.281e-06 

    Orbital Energies [Eh]
    ---------------------

    Doubly Occupied:                                                      

       1A1    -4.318915     2A1    -4.318389     1B1    -4.318387  
       3A1    -2.533050     2B1    -2.526268     4A1    -2.526262  
       3B1    -2.519960     5A1    -2.519951     4B1    -2.519258  
       1B2    -2.518618     1A2    -2.517501     2B2    -2.517498  
       6A1    -0.644197     5B1    -0.608264     7A1    -0.608241  
       3B2    -0.601641     8A1    -0.577530     4B2    -0.569151  
       2A2    -0.569148     6B1    -0.536810     9A1    -0.536800  
       7B1    -0.531098    10A1    -0.531074     3A2    -0.528715  
       5B2    -0.527548     4A2    -0.527532    11A1    -0.522948  
       8B1    -0.497199  

    Virtual:                                                              

       9B1    -0.299106    12A1    -0.299091     6B2    -0.190614  
      13A1    -0.146776    10B1    -0.139037    14A1    -0.139032  
       5A2    -0.078657     7B2    -0.078650    11B1    -0.012745  
      15A1    -0.012740    12B1     0.003887    16A1     0.036403  
      17A1     0.060809     8B2     0.062090    13B1     0.081263  
      18A1     0.081266     6A2     0.115149     9B2     0.115156  
      19A1     0.137961    14B1     0.137963    20A1     0.152742  
      15B1     0.176852     7A2     0.180922    10B2     0.180922  
      16B1     0.192985    21A1     0.193014    11B2     0.209826  
      22A1     0.262571    17B1     0.262575     8A2     0.297419  
       9A2     0.333884    12B2     0.333888    18B1     0.343140  
      23A1     0.343147    24A1     0.357314    19B1     0.432399  
      25A1     0.432425    20B1     0.449594    26A1     0.631624  
      27A1     0.729726    13B2     0.736998    21B1     0.742852  
      28A1     0.742867    10A2     0.809118    14B2     0.809151  
      15B2     0.876490    22B1     0.904173    29A1     0.904217  
      16B2     0.922607    11A2     0.923868    17B2     0.923895  
      23B1     0.949935    30A1     0.949959    24B1     0.970280  
      12A2     0.972938    18B2     0.972950    25B1     1.042762  
      31A1     1.052833    26B1     1.052852    13A2     1.134904  
      27B1     1.151028    32A1     1.151054    33A1     1.165025  
      14A2     1.179129    19B2     1.179144    28B1     1.199853  
      34A1     1.199907    29B1     1.264188    20B2     1.287470  
      35A1     1.289018    15A2     1.302132    21B2     1.302204  
      30B1     1.335450    36A1     1.335453    37A1     1.354329  
      16A2     1.417190    31B1     1.424566    38A1     1.424627  
      17A2     1.477720    22B2     1.477803    32B1     1.656035  
      39A1     1.656110    40A1     1.839102    33B1     1.871441  
      34B1     2.353552    41A1     2.353614    42A1     3.182421  
      23B2     3.213843    24B2     3.234432    18A2     3.234462  
      25B2     3.275123    35B1     3.292238    43A1     3.292248  
      19A2     3.352331    26B2     3.352384    36B1     3.370295  
      44A1     3.384455    45A1     3.387044    37B1     3.387107  
      20A2     3.496936    38B1     3.514977    46A1     3.515057  
      27B2     3.520614    21A2     3.520630    47A1     3.608470  
      39B1     3.608498    40B1     3.669158    41B1     3.804289  
      48A1     3.804329    49A1     3.806901    22A2     3.811626  
      28B2     3.811627    29B2     3.813693    42B1     3.819230  
      50A1     3.819236    30B2     3.819726    51A1     3.819939  
      23A2     3.822029    31B2     3.822052    52A1     3.827829  
      24A2     3.828034    25A2     3.828326    32B2     3.828370  
      53A1     3.828640    43B1     3.828652    44B1     3.831932  
      26A2     3.867717    27A2     3.875009    33B2     3.875078  
      45B1     3.881883    54A1     3.881937    46B1     4.020432  
      55A1     4.020560    47B1     4.143576    34B2    26.684396  
      48B1    26.866824    56A1    26.866991    57A1    26.960786  
      35B2    27.076447    28A2    27.076472    49B1    28.606337  
      50B1    29.294131    58A1    29.294957    59A1    43.326500  
      51B1    43.850748    60A1    43.850797    61A1   204.754487  
      52B1   204.984335    62A1   204.984357  

    Final Occupation by Irrep:
             A1    A2    B1    B2 
    DOCC [    11,    4,    8,    5 ]

  @DF-RKS Final Energy:  -406.31319148865862

   => Energetics <=

    Nuclear Repulsion Energy =            219.9121801351492707
    One-Electron Energy =               -1142.5114432268903784
    Two-Electron Energy =                 538.2502314415654610
    DFT Exchange-Correlation Energy =     -21.9640247484829949
    Empirical Dispersion Energy =          -0.0001350900000000
    VV10 Nonlocal Energy =                  0.0000000000000000
    Total Energy =                       -406.3131914886586742

Computation Completed


Properties will be evaluated at   0.000000,   0.000000,   0.000000 [a0]

Properties computed using the SCF density matrix

  Nuclear Dipole Moment: [e a0]
     X:     0.0000      Y:     0.0000      Z:    -0.0000

  Electronic Dipole Moment: [e a0]
     X:     0.0000      Y:     0.0000      Z:    -0.0001

  Dipole Moment: [e a0]
     X:     0.0000      Y:     0.0000      Z:    -0.0001     Total:     0.0001

  Dipole Moment: [D]
     X:     0.0000      Y:     0.0000      Z:    -0.0002     Total:     0.0002


*** tstop() called on compute088.bc4.acrc.priv at Fri Nov  5 07:31:31 2021
Module time:
	user time   =      94.98 seconds =       1.58 minutes
	system time =       2.73 seconds =       0.05 minutes
	total time  =          9 seconds =       0.15 minutes
Total time:
	user time   =    3993.42 seconds =      66.56 minutes
	system time =      47.05 seconds =       0.78 minutes
	total time  =        626 seconds =      10.43 minutes

*** tstart() called on compute088.bc4.acrc.priv
*** at Fri Nov  5 07:31:32 2021


         ------------------------------------------------------------
                                   SCF GRAD                          
                          Rob Parrish, Justin Turney,                
                       Andy Simmonett, and Alex Sokolov              
         ------------------------------------------------------------

  ==> Geometry <==

    Molecular point group: c2v
    Full point group: C2v

    Geometry (in Angstrom), charge = 1, multiplicity = 1:

       Center              X                  Y                   Z               Mass       
    ------------   -----------------  -----------------  -----------------  -----------------
[...]
    Using symmetric orthogonalization.

  ==> Pre-Iterations <==

  SCF Guess: Superposition of Atomic Densities via on-the-fly atomic UHF (no occupation information).

   -------------------------
    Irrep   Nso     Nmo    
   -------------------------
     A'       114     114 
     A"        63      63 
   -------------------------
    Total     177     177
   -------------------------

  ==> Iterations <==

                           Total Energy        Delta E     RMS |[F,P]|

   @DF-RKS iter SAD:  -405.87991535155800   -4.05880e+02   0.00000e+00 
   @DF-RKS iter   1:  -406.25372490723004   -3.73810e-01   3.26470e-03 DIIS
   @DF-RKS iter   2:  -406.20414351287423    4.95814e-02   4.70299e-03 DIIS
   @DF-RKS iter   3:  -406.31282466328383   -1.08681e-01   1.36042e-04 DIIS
   @DF-RKS iter   4:  -406.31308297963841   -2.58316e-04   1.05675e-04 DIIS
   @DF-RKS iter   5:  -406.31317526768896   -9.22881e-05   2.00715e-05 DIIS
   @DF-RKS iter   6:  -406.31318946631626   -1.41986e-05   1.22301e-05 DIIS
   @DF-RKS iter   7:  -406.31319094319321   -1.47688e-06   6.83925e-06 DIIS
   @DF-RKS iter   8:  -406.31319153450045   -5.91307e-07   7.33704e-07 DIIS
   @DF-RKS iter   9:  -406.31319155362633   -1.91259e-08   2.60746e-07 DIIS
   @DF-RKS iter  10:  -406.31319155463308   -1.00675e-09   1.56128e-07 DIIS
   @DF-RKS iter  11:  -406.31319155487455   -2.41471e-10   1.85752e-08 DIIS
   @DF-RKS iter  12:  -406.31319155488728   -1.27329e-11   5.04076e-09 DIIS
  Energy and wave function converged.


  ==> Post-Iterations <==

   Electrons on quadrature grid:
      Ntotal   =   55.9999916565 ; deviation = -8.343e-06 

    Orbital Energies [Eh]
    ---------------------

    Doubly Occupied:                                                      

       1Ap    -4.318915     2Ap    -4.318390     3Ap    -4.318385  
       4Ap    -2.533050     5Ap    -2.526267     6Ap    -2.526263  
       7Ap    -2.519959     8Ap    -2.519951     9Ap    -2.519258  
       1App   -2.518618     2App   -2.517503     3App   -2.517496  
      10Ap    -0.644197    11Ap    -0.608265    12Ap    -0.608241  
       4App   -0.601641    13Ap    -0.577530     5App   -0.569166  
       6App   -0.569133    14Ap    -0.536812    15Ap    -0.536798  
      16Ap    -0.531092    17Ap    -0.531081     7App   -0.528715  
       8App   -0.527554     9App   -0.527526    18Ap    -0.522948  
      19Ap    -0.497199  

    Virtual:                                                              

      20Ap    -0.299105    21Ap    -0.299092    10App   -0.190614  
      22Ap    -0.146776    23Ap    -0.139036    24Ap    -0.139033  
      11App   -0.078661    12App   -0.078646    25Ap    -0.012745  
      26Ap    -0.012740    27Ap     0.003887    28Ap     0.036403  
      29Ap     0.060809    13App    0.062090    30Ap     0.081263  
      31Ap     0.081266    14App    0.115149    15App    0.115156  
      32Ap     0.137958    33Ap     0.137965    34Ap     0.152743  
      35Ap     0.176852    16App    0.180918    17App    0.180927  
      36Ap     0.192986    37Ap     0.193013    18App    0.209826  
      38Ap     0.262568    39Ap     0.262578    19App    0.297419  
      20App    0.333883    21App    0.333890    40Ap     0.343141  
      41Ap     0.343147    42Ap     0.357314    43Ap     0.432411  
      44Ap     0.432413    45Ap     0.449594    46Ap     0.631624  
      47Ap     0.729725    22App    0.736998    48Ap     0.742840  
      49Ap     0.742879    23App    0.809100    24App    0.809168  
      25App    0.876490    50Ap     0.904181    51Ap     0.904209  
      26App    0.922607    27App    0.923879    28App    0.923884  
      52Ap     0.949941    53Ap     0.949953    54Ap     0.970280  
      29App    0.972912    30App    0.972976    55Ap     1.042762  
      56Ap     1.052837    57Ap     1.052848    31App    1.134904  
      58Ap     1.151037    59Ap     1.151044    60Ap     1.165025  
      32App    1.179110    33App    1.179163    61Ap     1.199852  
      62Ap     1.199907    63Ap     1.264188    34App    1.287470  
      64Ap     1.289018    35App    1.302145    36App    1.302191  
      65Ap     1.335445    66Ap     1.335458    67Ap     1.354329  
      37App    1.417190    68Ap     1.424557    69Ap     1.424635  
      38App    1.477743    39App    1.477780    70Ap     1.656016  
      71Ap     1.656128    72Ap     1.839103    73Ap     1.871440  
      74Ap     2.353545    75Ap     2.353620    76Ap     3.182421  
      40App    3.213843    41App    3.234424    42App    3.234470  
      43App    3.275123    77Ap     3.292219    78Ap     3.292267  
      44App    3.352351    45App    3.352364    79Ap     3.370295  
      80Ap     3.384452    81Ap     3.387042    82Ap     3.387111  
      46App    3.496936    83Ap     3.515000    84Ap     3.515033  
      47App    3.520587    48App    3.520657    85Ap     3.608469  
      86Ap     3.608500    87Ap     3.669158    88Ap     3.804307  
      89Ap     3.804311    90Ap     3.806901    49App    3.811616  
      50App    3.811637    51App    3.813692    91Ap     3.819221  
      92Ap     3.819244    52App    3.819725    93Ap     3.819939  
      53App    3.822036    54App    3.822046    94Ap     3.827829  
      55App    3.828034    56App    3.828328    57App    3.828367  
      95Ap     3.828641    96Ap     3.828652    97Ap     3.831932  
      58App    3.867716    59App    3.875023    60App    3.875064  
      98Ap     3.881852    99Ap     3.881968   100Ap     4.020418  
     101Ap     4.020572   102Ap     4.143576    61App   26.684395  
     103Ap    26.866880   104Ap    26.866934   105Ap    26.960786  
      62App   27.076304    63App   27.076615   106Ap    28.606336  
     107Ap    29.293833   108Ap    29.295255   109Ap    43.326500  
     110Ap    43.850718   111Ap    43.850827   112Ap   204.754487  
     113Ap   204.984326   114Ap   204.984366  

    Final Occupation by Irrep:
             Ap   App 
    DOCC [    19,    9 ]

  @DF-RKS Final Energy:  -406.31319155488728

   => Energetics <=

    Nuclear Repulsion Energy =            219.9121804229633028
    One-Electron Energy =               -1142.5114439855883575
    Two-Electron Energy =                 538.2502319810109839
    DFT Exchange-Correlation Energy =     -21.9640248832731118
    Empirical Dispersion Energy =          -0.0001350900000000
    VV10 Nonlocal Energy =                  0.0000000000000000
    Total Energy =                       -406.3131915548872257

Computation Completed


Properties will be evaluated at   0.000000,   0.000000,   0.000000 [a0]

Properties computed using the SCF density matrix

  Nuclear Dipole Moment: [e a0]
     X:    -0.0000      Y:     0.0000      Z:    -0.0000

  Electronic Dipole Moment: [e a0]
     X:     0.0001      Y:     0.0000      Z:    -0.0000

  Dipole Moment: [e a0]
     X:     0.0001      Y:     0.0000      Z:    -0.0000     Total:     0.0001

  Dipole Moment: [D]
     X:     0.0002      Y:     0.0000      Z:    -0.0001     Total:     0.0002


*** tstop() called on compute088.bc4.acrc.priv at Fri Nov  5 07:48:42 2021
Module time:
	user time   =      98.67 seconds =       1.64 minutes
	system time =       3.04 seconds =       0.05 minutes
	total time  =         10 seconds =       0.17 minutes
Total time:
	user time   =   10539.94 seconds =     175.67 minutes
	system time =     122.96 seconds =       2.05 minutes
	total time  =       1657 seconds =      27.62 minutes

*** tstart() called on compute088.bc4.acrc.priv
*** at Fri Nov  5 07:48:42 2021


         ------------------------------------------------------------
                                   SCF GRAD                          
                          Rob Parrish, Justin Turney,                
                       Andy Simmonett, and Alex Sokolov              
         ------------------------------------------------------------

  ==> Geometry <==

    Molecular point group: cs
    Full point group: Cs

    Geometry (in Angstrom), charge = 1, multiplicity = 1:

       Center              X                  Y                   Z               Mass       
    ------------   -----------------  -----------------  -----------------  -----------------
         AU          -0.000108850909     0.000000000000     1.504533511114   196.966568790000
         AU           1.303125552487     0.000000000000    -0.752361015478   196.966568790000
         AU          -1.303016701577     0.000000000000    -0.752172495637   196.966568790000

  Nuclear repulsion =  219.912180422963303

  ==> Basis Set <==

  Basis Set: DEF2-TZVPPD
    Blend: DEF2-TZVPPD
    Number of shells: 51
    Number of basis functions: 177
    Number of Cartesian functions: 222
    Spherical Harmonics?: true
    Max angular momentum: 4

  Core potential: DEF2-TZVPPD
    Number of shells: 12
    Number of ECP primitives: 42
    Number of ECP core electrons: 180
    Max angular momentum: 3

  ==> DFJKGrad: Density-Fitted SCF Gradients <==

    Gradient:                    1
    J tasked:                  Yes
    K tasked:                  Yes
    wK tasked:                  No
    OpenMP threads:             28
    Integrals threads:          28
    Memory [MiB]:            85830
    Schwarz Cutoff:          1E-12
    Fitting Condition:       1E-10

   => Auxiliary Basis Set <=

  Basis Set: (DEF2-TZVPPD AUX)
    Blend: DEF2-UNIVERSAL-JKFIT
    Number of shells: 153
    Number of basis functions: 741
    Number of Cartesian functions: 1095
    Spherical Harmonics?: true
    Max angular momentum: 6

  ==> DFT Potential <==

   => Composite Functional: MN15-D3BJ <= 

   MN15 Hybrid Meta-GGA Exchange-Correlation Functional

    H. S. Yu, X. He, S. L. Li, and D. G. Truhlar, Chem. Sci. 7, 5032-5051, 2016


    Deriv               =              1
    GGA                 =           TRUE
    Meta                =           TRUE

    Exchange Hybrid     =           TRUE
    MP2 Hybrid          =          FALSE

   => Exchange Functionals <=

    1.0000   XC_HYB_MGGA_X_MN15

   => Exact (HF) Exchange <=

    0.4400               HF 

   => Correlation Functionals <=

    1.0000   XC_MGGA_C_MN15

   => LibXC Density Thresholds  <==

    XC_MGGA_C_MN15:  1.00E-15 
    XC_HYB_MGGA_X_MN15:  1.00E-15 

   => Molecular Quadrature <=

    Radial Scheme          =       TREUTLER
    Pruning Scheme         =           NONE
    Nuclear Scheme         =       TREUTLER

    BS radius alpha        =              1
    Pruning alpha          =              1
    Radial Points          =             75
    Spherical Points       =            302
    Total Points           =          64010
    Total Blocks           =            590
    Max Points             =            255
    Max Functions          =            174
    Weights Tolerance      =       1.00E-15


  -Total Gradient:
     Atom            X                  Y                   Z
    ------   -----------------  -----------------  -----------------
       1       -0.000076870767     0.000000000000    -0.164055383699
       2       -0.141961014861     0.000000000000     0.081959160034
       3        0.142020710472     0.000000000000     0.082111321807


*** tstop() called on compute088.bc4.acrc.priv at Fri Nov  5 07:48:52 2021
Module time:
	user time   =      50.81 seconds =       0.85 minutes
	system time =       1.85 seconds =       0.03 minutes
	total time  =         10 seconds =       0.17 minutes
Total time:
	user time   =   10594.05 seconds =     176.57 minutes
	system time =     124.95 seconds =       2.08 minutes
	total time  =       1667 seconds =      27.78 minutes


  ==> Adding ECP gradient terms (computed numerically) <==

  -ECP Gradient:
     Atom            X                  Y                   Z
    ------   -----------------  -----------------  -----------------
       1        0.000041977006     0.000000000000     0.164143927014
       2        0.142089942271     0.000000000000    -0.082035459036
       3       -0.142131923487     0.000000000000    -0.082108464632


  -Total Gradient:
     Atom            X                  Y                   Z
    ------   -----------------  -----------------  -----------------
       1       -0.000034893761     0.000000000000     0.000088543315
       2        0.000128927410     0.000000000000    -0.000076299002
       3       -0.000111213015     0.000000000000     0.000002857175


         ----------------------------------------------------------
                                   FINDIF
                     R. A. King and Jonathon Misiewicz
         ---------------------------------------------------------

  Computing second-derivative from gradients using projected, 
  symmetry-adapted, cartesian coordinates.

  6 gradients passed in, including the reference geometry.
  Generating complete list of displacements from unique ones.

    Operation 2 takes plus displacements of irrep B1 to minus ones.

-------------------------------------------------------------


  ==> Harmonic Vibrational Analysis <==

  non-mass-weighted Hessian:       Symmetric? True   Hermitian? True   Lin Dep Dim?  6 (0)
  projection of translations (True) and rotations (True) removed 6 degrees of freedom (6)
  total projector:                 Symmetric? True   Hermitian? True   Lin Dep Dim?  6 (6)
  mass-weighted Hessian:           Symmetric? True   Hermitian? True   Lin Dep Dim?  6 (0)
  pre-proj  low-frequency mode:    0.0000i [cm^-1]
  pre-proj  low-frequency mode:    0.0000i [cm^-1]
  pre-proj  low-frequency mode:    0.0000  [cm^-1]
  pre-proj  low-frequency mode:    0.0000  [cm^-1]
  pre-proj  low-frequency mode:    0.0000  [cm^-1]
  pre-proj  low-frequency mode:    0.0000  [cm^-1]
  pre-proj  all modes:['0.0000i' '0.0000i' '0.0000' '0.0000' '0.0000' '0.0000' '118.7717'
 '156.2547' '182.6604']
  projected mass-weighted Hessian: Symmetric? True   Hermitian? True   Lin Dep Dim?  6 (6)
  post-proj low-frequency mode:    0.0000i [cm^-1] (TR)
  post-proj low-frequency mode:    0.0000i [cm^-1] (TR)
  post-proj low-frequency mode:    0.0000i [cm^-1] (TR)
  post-proj low-frequency mode:    0.0000  [cm^-1] (TR)
  post-proj low-frequency mode:    0.0000  [cm^-1] (TR)
  post-proj low-frequency mode:    0.0000  [cm^-1] (TR)
  post-proj  all modes:['0.0000i' '0.0000i' '0.0000i' '0.0000' '0.0000' '0.0000' '118.7717'
 '156.2547' '182.6604']

  Vibration                       7                   8                   9           
  Freq [cm^-1]                 118.7717            156.2547            182.6604       
  Irrep                           A1                  B1                  A1          
  Reduced mass [u]             196.9666            196.9666            196.9666       
  Force const [mDyne/A]         1.6371              2.8334              3.8720        
  Turning point v=0 [a0]        0.0717              0.0625              0.0578        
  RMS dev v=0 [a0 u^1/2]        0.7119              0.6207              0.5741        
  Char temp [K]                170.8861            224.8157            262.8076       
  ----------------------------------------------------------------------------------
      1   AU              -0.00 -0.00  0.58    0.58 -0.00 -0.00    0.00 -0.00  0.57   
      2   AU              -0.49  0.00 -0.29   -0.29  0.00  0.50    0.51 -0.00 -0.29   
      3   AU               0.49  0.00 -0.29   -0.29  0.00 -0.50   -0.51 -0.00 -0.29   

  ==> Thermochemistry Components <==

  Entropy, S
    Electronic S            0.000 [cal/(mol K)]        0.000 [J/(mol K)]       0.00000000 [mEh/K] (multiplicity = 1)
    Translational S        45.013 [cal/(mol K)]      188.336 [J/(mol K)]       0.07173329 [mEh/K] (mol. weight = 590.8997 [u], P = 101325.00 [Pa])
    Rotational S           30.300 [cal/(mol K)]      126.776 [J/(mol K)]       0.04828630 [mEh/K] (symmetry no. = 2)
    Vibrational S           8.016 [cal/(mol K)]       33.539 [J/(mol K)]       0.01277422 [mEh/K]
  Total S                  83.329 [cal/(mol K)]      348.650 [J/(mol K)]       0.13279381 [mEh/K]
  Correction S              0.000 [cal/(mol K)]        0.000 [J/(mol K)]       0.00000000 [mEh/K]

  Constant volume heat capacity, Cv
    Electronic Cv           0.000 [cal/(mol K)]        0.000 [J/(mol K)]       0.00000000 [mEh/K]
    Translational Cv        2.981 [cal/(mol K)]       12.472 [J/(mol K)]       0.00475022 [mEh/K]
    Rotational Cv           2.981 [cal/(mol K)]       12.472 [J/(mol K)]       0.00475022 [mEh/K]
    Vibrational Cv          5.693 [cal/(mol K)]       23.818 [J/(mol K)]       0.00907195 [mEh/K]
  Total Cv                 11.654 [cal/(mol K)]       48.762 [J/(mol K)]       0.01857238 [mEh/K]
  Correction Cv             0.000 [cal/(mol K)]        0.000 [J/(mol K)]       0.00000000 [mEh/K]

  Constant pressure heat capacity, Cp
    Electronic Cp           0.000 [cal/(mol K)]        0.000 [J/(mol K)]       0.00000000 [mEh/K]
    Translational Cp        4.968 [cal/(mol K)]       20.786 [J/(mol K)]       0.00791703 [mEh/K]
    Rotational Cp           2.981 [cal/(mol K)]       12.472 [J/(mol K)]       0.00475022 [mEh/K]
    Vibrational Cp          5.693 [cal/(mol K)]       23.818 [J/(mol K)]       0.00907195 [mEh/K]
  Total Cp                 13.642 [cal/(mol K)]       57.076 [J/(mol K)]       0.02173919 [mEh/K]
  Correction Cp             0.000 [cal/(mol K)]        0.000 [J/(mol K)]       0.00000000 [mEh/K]

  ==> Thermochemistry Energy Analysis <==

  Raw electronic energy, E0
  Total E0, Electronic energy at well bottom at 0 [K]                 -406.31319149 [Eh]

  Zero-point energy, ZPE_vib = Sum_i nu_i / 2
    Electronic ZPE          0.000 [kcal/mol]        0.000 [kJ/mol]       0.00000000 [Eh]
    Translational ZPE       0.000 [kcal/mol]        0.000 [kJ/mol]       0.00000000 [Eh]
    Rotational ZPE          0.000 [kcal/mol]        0.000 [kJ/mol]       0.00000000 [Eh]
    Vibrational ZPE         0.654 [kcal/mol]        2.738 [kJ/mol]       0.00104269 [Eh]         228.843 [cm^-1]
  Correction ZPE            0.654 [kcal/mol]        2.738 [kJ/mol]       0.00104269 [Eh]         228.843 [cm^-1]
  Total ZPE, Electronic energy at 0 [K]                               -406.31214880 [Eh]

  Thermal Energy, E (includes ZPE)
    Electronic E            0.000 [kcal/mol]        0.000 [kJ/mol]       0.00000000 [Eh]
    Translational E         0.889 [kcal/mol]        3.718 [kJ/mol]       0.00141628 [Eh]
    Rotational E            0.889 [kcal/mol]        3.718 [kJ/mol]       0.00141628 [Eh]
    Vibrational E           1.859 [kcal/mol]        7.779 [kJ/mol]       0.00296294 [Eh]
  Correction E              3.637 [kcal/mol]       15.216 [kJ/mol]       0.00579549 [Eh]
  Total E, Electronic energy at  298.15 [K]                           -406.30739600 [Eh]

  Enthalpy, H_trans = E_trans + k_B * T
    Electronic H            0.000 [kcal/mol]        0.000 [kJ/mol]       0.00000000 [Eh]
    Translational H         1.481 [kcal/mol]        6.197 [kJ/mol]       0.00236046 [Eh]
    Rotational H            0.889 [kcal/mol]        3.718 [kJ/mol]       0.00141628 [Eh]
    Vibrational H           1.859 [kcal/mol]        7.779 [kJ/mol]       0.00296294 [Eh]
  Correction H              4.229 [kcal/mol]       17.695 [kJ/mol]       0.00673967 [Eh]
  Total H, Enthalpy at  298.15 [K]                                    -406.30645182 [Eh]

  Gibbs free energy, G = H - T * S
    Electronic G            0.000 [kcal/mol]        0.000 [kJ/mol]       0.00000000 [Eh]
    Translational G       -11.940 [kcal/mol]      -49.955 [kJ/mol]      -0.01902682 [Eh]
    Rotational G           -8.145 [kcal/mol]      -34.080 [kJ/mol]      -0.01298028 [Eh]
    Vibrational G          -0.531 [kcal/mol]       -2.220 [kJ/mol]      -0.00084570 [Eh]
  Correction G            -20.615 [kcal/mol]      -86.255 [kJ/mol]      -0.03285280 [Eh]
  Total G, Free enthalpy at  298.15 [K]                               -406.34604429 [Eh]

    Psi4 stopped on: Friday, 05 November 2021 07:51AM
    Psi4 wall time for execution: 0:30:53.27

*** Psi4 exiting successfully. Buy a developer a beer!
