Optimizer: Optimization complete!
 3 displacements needed.
 1 2 3
Warning: used thermodynamics relations inappropriate for low-frequency modes: ['253.4913']
At level 1: Red. Int., RFO, no backsteps, dynamic trust
At level 1: Red. Int., RFO, no backsteps, dynamic trust
At level 1: Red. Int., RFO, no backsteps, dynamic trust
At level 1: Red. Int., RFO, no backsteps, dynamic trust
,
    A. Alenaizan, A. M. James, S. Lehtola, J. P. Misiewicz, M. Scheurer,
    R. A. Shaw, J. B. Schriber, Y. Xie, Z. L. Glick, D. A. Sirianni,
    J. S. O'Brien, J. M. Waldrop, A. Kumar, E. G. Hohenstein,
    B. P. Pritchard, B. R. Brooks, H. F. Schaefer III, A. Yu. Sokolov,
    K. Patkowski, A. E. DePrince III, U. Bozkaya, R. A. King,
    F. A. Evangelista, J. M. Turney, T. D. Crawford, C. D. Sherrill,
    J. Chem. Phys. 152(18) 184108 (2020). https://doi.org/10.1063/5.0006002

                            Additional Code Authors
    E. T. Seidl, C. L. Janssen, E. F. Valeev, M. L. Leininger,
    J. F. Gonthier, R. M. Richard, H. R. McAlexander, M. Saitow, X. Wang,
    P. Verma, and M. H. Lechner

             Previous Authors, Complete List of Code Contributors,
                       and Citations for Specific Modules
    https://github.com/psi4/psi4/blob/master/codemeta.json
    https://github.com/psi4/psi4/graphs/contributors
    http://psicode.org/psi4manual/master/introduction.html#citing-psifour

    -----------------------------------------------------------------------


    Psi4 started on: Tuesday, 02 November 2021 10:30AM

    Process ID: 3797
    Host:       compute181.bc4.acrc.priv
    PSIDATADIR: /mnt/storage/home/zw18965/.conda/envs/p4env/share/psi4
    Memory:     500.0 MiB
    Threads:    28
    
  ==> Input File <==

--------------------------------------------------------------------------
memory 120 GB

molecule {
0 1
Cu       0.000000    0.000000    1.107490 
Cu       0.000000    0.000000   -1.107490 
 }

set dynamic_level 1
set basis Def2-TZVPPD

optimize("MN15-D3BJ")
frequencies("MN15-D3BJ")
--------------------------------------------------------------------------

  Memory set to 111.759 GiB by Python driver.

Scratch directory: /tmp/
gradient() will perform analytic gradient computation.

*** tstart() called on compute181.bc4.acrc.priv
*** at Tue Nov  2 10:30:07 2021

   => Loading Basis Set <=

    Name: DEF2-TZVPPD
    Role: ORBITAL
    Keyword: BASIS
    atoms 1-2 entry CU         line  1290 file /mnt/storage/home/zw18965/.conda/envs/p4env/share/psi4/basis/def2-tzvppd.gbs 

   => MN15-D3(BJ): Empirical Dispersion <=

    Grimme's -D3 (BJ-damping) Dispersion Correction
    Grimme S.; Ehrlich S.; Goerigk L. (2011), J. Comput. Chem., 32: 1456
    Parametrisation from:    L. Goerigk, A. Hansen, C. Bauer, S. Ehrlich, A. Najibi, S. Grimme, Phys. Chem. Chem. Phys. 19, 32184-32215, 2017

        s6 =       1.000000
        s8 =       2.097100
        a1 =       0.786200
        a2 =       7.592300


         ---------------------------------------------------------
                                   SCF
               by Justin Turney, Rob Parrish, Andy Simmonett
                          and Daniel G. A. Smith
                              RKS Reference
                       28 Threads, 114440 MiB Core
         ---------------------------------------------------------

  ==> Geometry <==

    Molecular point group: d2h
    Full point group: D_inf_h

    Geometry (in Angstrom), charge = 0, multiplicity = 1:

       Center              X                  Y                   Z               Mass       
    ------------   -----------------  -----------------  -----------------  -----------------
         CU           0.000000000000     0.000000000000     1.107490000000    62.929597720000
         CU           0.000000000000     0.000000000000    -1.107490000000    62.929597720000

  Running in d2h symmetry.

  Rotational constants: A = ************  B =      0.10920  C =      0.10920 [cm^-1]
  Rotational constants: A = ************  B =   3273.80359  C =   3273.80359 [MHz]
  Nuclear repulsion =  200.921919915064706

  Charge       = 0
  Multiplicity = 1
  Electrons    = 58
  Nalpha       = 29
  Nbeta        = 29

  ==> Algorithm <==

  SCF Algorithm Type is DF.
  DIIS enabled.
  MOM disabled.
  Fractional occupation disabled.
  Guess Type is SAD.
  Energy threshold   = 1.00e-08
  Density threshold  = 1.00e-08
  Integral threshold = 1.00e-12

  ==> Primary Basis <==

  Basis Set: DEF2-TZVPPD
    Blend: DEF2-TZVPPD
    Number of shells: 38
    Number of basis functions: 134
    Number of Cartesian functions: 166
    Spherical Harmonics?: true
    Max angular momentum: 4

  ==> DFT Potential <==

   => Composite Functional: MN15-D3BJ <= 

   MN15 Hybrid Meta-GGA Exchange-Correlation Functional

    H. S. Yu, X. He, S. L. Li, and D. G. Truhlar, Chem. Sci. 7, 5032-5051, 2016


    Deriv               =              1
    GGA                 =           TRUE
    Meta                =           TRUE

    Exchange Hybrid     =           TRUE
    MP2 Hybrid          =          FALSE

   => Exchange Functionals <=

    1.0000   XC_HYB_MGGA_X_MN15

   => Exact (HF) Exchange <=

    0.4400               HF 

   => Correlation Functionals <=

    1.0000   XC_MGGA_C_MN15

   => LibXC Density Thresholds  <==

    XC_MGGA_C_MN15:  1.00E-15 
    XC_HYB_MGGA_X_MN15:  1.00E-15 

   => Molecular Quadrature <=

    Radial Scheme          =       TREUTLER
    Pruning Scheme         =           NONE
    Nuclear Scheme         =       TREUTLER

    BS radius alpha        =              1
    Pruning alpha          =              1
    Radial Points          =             75
    Spherical Points       =            302
    Total Points           =          43516
    Total Blocks           =            430
    Max Points             =            252
    Max Functions          =            129
    Weights Tolerance      =       1.00E-15

   => Loading Basis Set <=

    Name: (DEF2-TZVPPD AUX)
    Role: JKFIT
    Keyword: DF_BASIS_SCF
    atoms 1-2 entry CU         line  2356 file /mnt/storage/home/zw18965/.conda/envs/p4env/share/psi4/basis/def2-universal-jkfit.gbs 

  ==> Integral Setup <==

  DFHelper Memory: AOs need 0.078 GiB; user supplied 83.536 GiB. Using in-core AOs.

  ==> MemDFJK: Density-Fitted J/K Matrices <==

    J tasked:                   Yes
    K tasked:                   Yes
    wK tasked:                   No
    OpenMP threads:              28
    Memory [MiB]:             85540
    Algorithm:                 Core
    Schwarz Cutoff:           1E-12
    Mask sparsity (%):       4.8340
    Fitting Condition:        1E-10

   => Auxiliary Basis Set <=

  Basis Set: (DEF2-TZVPPD AUX)
    Blend: DEF2-UNIVERSAL-JKFIT
    Number of shells: 116
    Number of basis functions: 528
    Number of Cartesian functions: 754
    Spherical Harmonics?: true
    Max angular momentum: 6

  Cached 100.0% of DFT collocation blocks in 0.284 [GiB].

  Minimum eigenvalue in the overlap matrix is 1.7933381490E-03.
  Reciprocal condition number of the overlap matrix is 4.2571460006E-04.
    Using symmetric orthogonalization.

  ==> Pre-Iterations <==

  SCF Guess: Superposition of Atomic Densities via on-the-fly atomic UHF (no occupation information).

   -------------------------
    Irrep   Nso     Nmo    
   -------------------------
     Ag        27      27 
     B1g        8       8 
     B2g       16      16 
     B3g       16      16 
     Au         8       8 
     B1u       27      27 
     B2u       16      16 
     B3u       16      16 
   -------------------------
    Total     134     134
   -------------------------

  ==> Iterations <==

                           Total Energy        Delta E     RMS |[F,P]|

   @DF-RKS iter SAD: -3276.50937848325793   -3.27651e+03   0.00000e+00 
    Occupation by irrep:
             Ag   B1g   B2g   B3g    Au   B1u   B2u   B3u 
    DOCC [     8,    1,    3,    3,    0,    7,    4,    3 ]

   @DF-RKS iter   1: -3275.57935835876560    9.30020e-01   1.19148e-01 DIIS
    Occupation by irrep:
             Ag   B1g   B2g   B3g    Au   B1u   B2u   B3u 
    DOCC [     8,    1,    3,    3,    1,    7,    3,    3 ]

   @DF-RKS iter   2: -3189.74656136050135    8.58328e+01   2.66155e-01 DIIS
   @DF-RKS iter   3: -3279.69580186654412   -8.99492e+01   5.63658e-02 DIIS
   @DF-RKS iter   4: -3279.10861428465114    5.87188e-01   6.68359e-02 DIIS
   @DF-RKS iter   5: -3281.53226039737774   -2.42365e+00   9.91811e-03 DIIS
   @DF-RKS iter   6: -3281.55870261881773   -2.64422e-02   5.13260e-03 DIIS
   @DF-RKS iter   7: -3281.56924877779602   -1.05462e-02   1.51156e-03 DIIS
   @DF-RKS iter   8: -3281.57033626049679   -1.08748e-03   1.24844e-04 DIIS
   @DF-RKS iter   9: -3281.57034478015203   -8.51966e-06   4.49461e-05 DIIS
   @DF-RKS iter  10: -3281.57034591974934   -1.13960e-06   9.35415e-06 DIIS
   @DF-RKS iter  11: -3281.57034608092954   -1.61180e-07   2.19526e-06 DIIS
   @DF-RKS iter  12: -3281.57034610584606   -2.49165e-08   9.44866e-07 DIIS
   @DF-RKS iter  13: -3281.57034610806750   -2.22144e-09   2.01868e-07 DIIS
   @DF-RKS iter  14: -3281.57034610813071   -6.32099e-11   2.74141e-08 DIIS
   @DF-RKS iter  15: -3281.57034610813071    0.00000e+00   2.53788e-09 DIIS
  Energy and wave function converged.


  ==> Post-Iterations <==

   Electrons on quadrature grid:
      Ntotal   =   58.0000064685 ; deviation = 6.468e-06 

    Orbital Energies [Eh]
    ---------------------

    Doubly Occupied:                                                      

       1B1u -320.685220     1Ag  -320.685205     2B1u  -37.855286  
       2Ag   -37.855070     3B1u  -33.707252     3Ag   -33.707243  
       1B2g  -33.704507     1B3g  -33.704507     1B3u  -33.704498  
       1B2u  -33.704498     4Ag    -4.075898     4B1u   -4.075022  
       5Ag    -2.750526     2B2u   -2.744615     2B3u   -2.744615  
       2B3g   -2.744050     2B2g   -2.744050     5B1u   -2.744042  
       6Ag    -0.346628     3B2u   -0.334566     3B3u   -0.334566  
       7Ag    -0.317473     1B1g   -0.317469     6B1u   -0.309088  
       1Au    -0.309084     3B3g   -0.297191     3B2g   -0.297191  
       7B1u   -0.292702     8Ag    -0.236978  

    Virtual:                                                              

       8B1u   -0.061431     4B3u   -0.007257     4B2u   -0.007257  
       9Ag     0.035920     4B3g    0.075105     4B2g    0.075105  
       9B1u    0.084690    10Ag     0.140676    11Ag     0.159444  
       5B3u    0.159486     5B2u    0.159486    12Ag     0.195978  
       2B1g    0.195981     5B3g    0.204841     5B2g    0.204841  
      10B1u    0.228307    11B1u    0.266086     6B2u    0.268011  
       6B3u    0.268011    12B1u    0.283509     2Au     0.283511  
      13Ag     0.371416     6B2g    0.387563     6B3g    0.387563  
      13B1u    0.560886    14Ag     0.680550     7B3u    0.693834  
       7B2u    0.693834     7B2g    0.783508     7B3g    0.783508  
      14B1u    0.837591     8B2u    0.883785     8B3u    0.883785  
       3B1g    0.913161    15Ag     0.913182     3Au     0.993687  
      15B1u    0.993709    16Ag     1.022359     8B2g    1.132155  
       8B3g    1.132155    16B1u    1.342145     9B2u    2.975624  
       9B3u    2.975624    17Ag     3.021589    17B1u    3.029194  
       9B3g    3.059341     9B2g    3.059341    18Ag     3.120739  
      10B3u    3.390957    10B2u    3.390957    19Ag     3.407798  
       4B1g    3.416824    20Ag     3.416846    11B3u    3.430060  
      11B2u    3.430060    10B2g    3.430642    10B3g    3.430642  
       4Au     3.431066    18B1u    3.431084    11B2g    3.441521  
      11B3g    3.441521    19B1u    3.465596    20B1u    3.567681  
      21Ag     3.615825     5B1g    3.615856    21B1u    3.659937  
       5Au     3.659961    12B2u    3.681348    12B3u    3.681348  
      12B2g    3.761362    12B3g    3.761362    22Ag     3.941727  
      22B1u    4.076692    23Ag    12.717283    13B2u   12.717674  
      13B3u   12.717674    13B3g   12.718256    13B2g   12.718256  
      24Ag    12.718507    23B1u   12.718539     6B1g   12.718569  
       6Au    12.718600    24B1u   12.719155    14B3u   12.720135  
      14B2u   12.720135    14B2g   12.720136    14B3g   12.720136  
      25B1u   12.721714    25Ag    12.721715     7Au    12.721889  
       7B1g   12.721890    26Ag    12.868406    15B2u   12.874165  
      15B3u   12.874165     8B1g   12.877637    27Ag    12.877754  
      16B3u   12.879355    16B2u   12.879355    15B3g   12.879522  
      15B2g   12.879522     8Au    12.881136    26B1u   12.881252  
      16B3g   12.904592    16B2g   12.904592    27B1u   13.021022  

    Final Occupation by Irrep:
             Ag   B1g   B2g   B3g    Au   B1u   B2u   B3u 
    DOCC [     8,    1,    3,    3,    1,    7,    3,    3 ]

  @DF-RKS Final Energy: -3281.57034610813071

   => Energetics <=

    Nuclear Repulsion Energy =            200.9219199150647057
    One-Electron Energy =               -4976.8051483608396666
    Two-Electron Energy =                1571.5163302919904709
    DFT Exchange-Correlation Energy =     -77.2034164443465727
    Empirical Dispersion Energy =          -0.0000315100000000
    VV10 Nonlocal Energy =                  0.0000000000000000
    Total Energy =                      -3281.5703461081311616

Computation Completed


Properties will be evaluated at   0.000000,   0.000000,   0.000000 [a0]

Properties computed using the SCF density matrix

  Nuclear Dipole Moment: [e a0]
     X:     0.0000      Y:     0.0000      Z:    -0.0000

  Electronic Dipole Moment: [e a0]
     X:     0.0000      Y:     0.0000      Z:     0.0000

  Dipole Moment: [e a0]
     X:     0.0000      Y:     0.0000      Z:    -0.0000     Total:     0.0000

  Dipole Moment: [D]
     X:     0.0000      Y:     0.0000      Z:    -0.0000     Total:     0.0000


*** tstop() called on compute181.bc4.acrc.priv at Tue Nov  2 10:30:12 2021
Module time:
	user time   =      46.25 seconds =       0.77 minutes
	system time =       2.91 seconds =       0.05 minutes
	total time  =          5 seconds =       0.08 minutes
Total time:
	user time   =      46.25 seconds =       0.77 minutes
	system time =       2.91 seconds =       0.05 minutes
	total time  =          5 seconds =       0.08 minutes

*** tstart() called on compute181.bc4.acrc.priv
*** at Tue Nov  2 10:30:12 2021


         ------------------------------------------------------------
                                   SCF GRAD                          
                          Rob Parrish, Justin Turney,                
                       Andy Simmonett, and Alex Sokolov              
         ------------------------------------------------------------

  ==> Geometry <==

    Molecular point group: d2h
    Full point group: D_inf_h

    Geometry (in Angstrom), charge = 0, multiplicity = 1:

       Center              X                  Y                   Z               Mass       
    ------------   -----------------  -----------------  -----------------  -----------------
         CU           0.000000000000     0.000000000000     1.107490000000    62.929597720000
         CU           0.000000000000     0.000000000000    -1.107490000000    62.929597720000

  Nuclear repulsion =  200.921919915064706

  ==> Basis Set <==

  Basis Set: DEF2-TZVPPD
    Blend: DEF2-TZVPPD
    Number of shells: 38
    Number of basis functions: 134
    Number of Cartesian functions: 166
    Spherical Harmonics?: true
    Max angular momentum: 4

  ==> DFJKGrad: Density-Fitted SCF Gradients <==

    Gradient:                    1
    J tasked:                  Yes
    K tasked:                  Yes
    wK tasked:                  No
    OpenMP threads:             28
    Integrals threads:          28
    Memory [MiB]:            85830
    Schwarz Cutoff:          1E-12
    Fitting Condition:       1E-10

   => Auxiliary Basis Set <=

  Basis Set: (DEF2-TZVPPD AUX)
    Blend: DEF2-UNIVERSAL-JKFIT
    Number of shells: 116
    Number of basis functions: 528
    Number of Cartesian functions: 754
    Spherical Harmonics?: true
    Max angular momentum: 6

  ==> DFT Potential <==

   => Composite Functional: MN15-D3BJ <= 

   MN15 Hybrid Meta-GGA Exchange-Correlation Functional

    H. S. Yu, X. He, S. L. Li, and D. G. Truhlar, Chem. Sci. 7, 5032-5051, 2016


    Deriv               =              1
    GGA                 =           TRUE
    Meta                =           TRUE

    Exchange Hybrid     =           TRUE
    MP2 Hybrid          =          FALSE

   => Exchange Functionals <=

    1.0000   XC_HYB_MGGA_X_MN15

   => Exact (HF) Exchange <=

    0.4400               HF 

   => Correlation Functionals <=

    1.0000   XC_MGGA_C_MN15

   => LibXC Density Thresholds  <==

    XC_MGGA_C_MN15:  1.00E-15 
    XC_HYB_MGGA_X_MN15:  1.00E-15 

   => Molecular Quadrature <=

    Radial Scheme          =       TREUTLER
    Pruning Scheme         =           NONE
    Nuclear Scheme         =       TREUTLER

    BS radius alpha        =              1
    Pruning alpha          =              1
    Radial Points          =             75
    Spherical Points       =            302
    Total Points           =          43516
    Total Blocks           =            430
    Max Points             =            252
    Max Functions          =            129
    Weights Tolerance      =       1.00E-15


  -Total Gradient:
     Atom            X                  Y                   Z
    ------   -----------------  -----------------  -----------------
       1        0.000000000000    -0.000000000000    -0.009970028134
       2        0.000000000000    -0.000000000000     0.009970028134


*** tstop() called on compute181.bc4.acrc.priv at Tue Nov  2 10:30:21 2021
Module time:
	user time   =      38.90 seconds =       0.65 minutes
	system time =       5.13 seconds =       0.09 minutes
	total time  =          9 seconds =       0.15 minutes
Total time:
	user time   =      86.62 seconds =       1.44 minutes
	system time =       8.15 seconds =       0.14 minutes
	total time  =         14 seconds =       0.23 minutes

			-----------------------------------------
			 OPTKING 2.0: for geometry optimizations 
			  - R.A. King,  Bethel University        
			-----------------------------------------
	At level 1: Red. Int., RFO, no backsteps, dynamic trust

	Internal coordinates to be generated automatically.
	Detected frag 1 with atoms:  1 2
	---Fragment 1 Bond Connectivity---
	 1 : 2
	 2 : 1

	---Fragment 1 Geometry and Gradient---
	 CU          0.0000000000        0.0000000000        2.0928527867
	 CU          0.0000000000        0.0000000000       -2.0928527867
	             0.0000000000       -0.0000000000       -0.0099700281
	             0.0000000000       -0.0000000000        0.0099700281

	Previous optimization step data not found.  Starting new optimization.

	---Fragment 1 Intrafragment Coordinates---
	 - Coordinate -           - BOHR/RAD -       - ANG/DEG -
	 R(1,2)           =         4.185706	       2.214980

	Current energy   :     -3281.5703461081

	Generating empirical Hessian (Schlegel '84) for each fragment.
	Taking RFO optimization step.
	Going to follow RFO solution 1.
	Using RFO vector 1.
	Norm of target step-size    0.05444
	Projected energy change by RFO approximation:         0.0009365168

	Back-transformation to cartesian coordinates...
	Successfully converged to displaced geometry.

	--- Internal Coordinate Step in ANG or DEG, aJ/ANG or AJ/DEG ---
	 ---------------------------------------------------------------------------
	   Coordinate                Previous        Force       Change         New 
	   ----------                --------       ------       ------       ------
	    1 R(1,2)          =      2.214980     0.082140     0.028811     2.243791
	 ---------------------------------------------------------------------------
	Successfully symmetrized geometry.

  ==> Convergence Check <==

  Measures of convergence in internal coordinates in au.
  Criteria marked as inactive (o), active & met (*), and active & unmet ( ).
  --------------------------------------------------------------------------------------------- ~
   Step     Total Energy     Delta E     MAX Force     RMS Force      MAX Disp      RMS Disp    ~
  --------------------------------------------------------------------------------------------- ~
    Convergence Criteria    1.00e-06 *    3.00e-04 *             o    1.20e-03 *             o  ~
  --------------------------------------------------------------------------------------------- ~
      1   -3281.57034611   -3.28e+03      9.97e-03      9.97e-03 o    5.44e-02      5.44e-02 o  ~
  ---------------------------------------------------------------------------------------------

	Writing optimization data to binary file.
	Structure for next step:
	Cartesian Geometry (in Angstrom)
	   CU     0.0000000000   0.0000000000   1.1218954152
	   CU     0.0000000000   0.0000000000  -1.1218954152
			--------------------------
			 OPTKING Finished Execution 
			--------------------------

    Structure for next step:
    Molecular point group: d2h
    Full point group: D_inf_h

    Geometry (in Angstrom), charge = 0, multiplicity = 1:

    CU           0.000000000000     0.000000000000     1.121895419604
    CU           0.000000000000     0.000000000000    -1.121895419604


Scratch directory: /tmp/
gradient() will perform analytic gradient computation.

*** tstart() called on compute181.bc4.acrc.priv
*** at Tue Nov  2 10:30:21 2021

   => Loading Basis Set <=

    Name: DEF2-TZVPPD
    Role: ORBITAL
    Keyword: BASIS
    atoms 1-2 entry CU         line  1290 file /mnt/storage/home/zw18965/.conda/envs/p4env/share/psi4/basis/def2-tzvppd.gbs 

   => MN15-D3(BJ): Empirical Dispersion <=

    Grimme's -D3 (BJ-damping) Dispersion Correction
    Grimme S.; Ehrlich S.; Goerigk L. (2011), J. Comput. Chem., 32: 1456
    Parametrisation from:    L. Goerigk, A. Hansen, C. Bauer, S. Ehrlich, A. Najibi, S. Grimme, Phys. Chem. Chem. Phys. 19, 32184-32215, 2017

        s6 =       1.000000
        s8 =       2.097100
        a1 =       0.786200
        a2 =       7.592300


         ---------------------------------------------------------
                                   SCF
               by Justin Turney, Rob Parrish, Andy Simmonett
                          and Daniel G. A. Smith
                              RKS Reference
                       28 Threads, 114440 MiB Core
         ---------------------------------------------------------

  ==> Geometry <==

    Molecular point group: d2h
    Full point group: D_inf_h

    Geometry (in Angstrom), charge = 0, multiplicity = 1:

       Center              X                  Y                   Z               Mass       
    ------------   -----------------  -----------------  -----------------  -----------------
         CU           0.000000000000     0.000000000000     1.121895419604    62.929597720000
         CU           0.000000000000     0.000000000000    -1.121895419604    62.929597720000

  Running in d2h symmetry.

  Rotational constants: A = ************  B =      0.10642  C =      0.10642 [cm^-1]
  Rotational constants: A = ************  B =   3190.27043  C =   3190.27043 [MHz]
  Nuclear repulsion =  198.342031884941747

  Charge       = 0
  Multiplicity = 1
  Electrons    = 58
  Nalpha       = 29
  Nbeta        = 29

  ==> Algorithm <==

  SCF Algorithm Type is DF.
  DIIS enabled.
  MOM disabled.
  Fractional occupation disabled.
  Guess Type is READ.
  Energy threshold   = 1.00e-08
  Density threshold  = 1.00e-08
  Integral threshold = 1.00e-12

  ==> Primary Basis <==

  Basis Set: DEF2-TZVPPD
    Blend: DEF2-TZVPPD
    Number of shells: 38
    Number of basis functions: 134
    Number of Cartesian functions: 166
    Spherical Harmonics?: true
    Max angular momentum: 4

  ==> DFT Potential <==

   => Composite Functional: MN15-D3BJ <= 

   MN15 Hybrid Meta-GGA Exchange-Correlation Functional

    H. S. Yu, X. He, S. L. Li, and D. G. Truhlar, Chem. Sci. 7, 5032-5051, 2016


    Deriv               =              1
    GGA                 =           TRUE
    Meta                =           TRUE

    Exchange Hybrid     =           TRUE
    MP2 Hybrid          =          FALSE

   => Exchange Functionals <=

    1.0000   XC_HYB_MGGA_X_MN15

   => Exact (HF) Exchange <=

    0.4400               HF 

   => Correlation Functionals <=

    1.0000   XC_MGGA_C_MN15

   => LibXC Density Thresholds  <==

    XC_MGGA_C_MN15:  1.00E-15 
    XC_HYB_MGGA_X_MN15:  1.00E-15 

   => Molecular Quadrature <=

    Radial Scheme          =       TREUTLER
    Pruning Scheme         =           NONE
    Nuclear Scheme         =       TREUTLER

    BS radius alpha        =              1
    Pruning alpha          =              1
    Radial Points          =             75
    Spherical Points       =            302
    Total Points           =          43516
    Total Blocks           =            430
    Max Points             =            254
    Max Functions          =            129
    Weights Tolerance      =       1.00E-15

   => Loading Basis Set <=

    Name: (DEF2-TZVPPD AUX)
    Role: JKFIT
    Keyword: DF_BASIS_SCF
    atoms 1-2 entry CU         line  2356 file /mnt/storage/home/zw18965/.conda/envs/p4env/share/psi4/basis/def2-universal-jkfit.gbs 

   => Loading Basis Set <=

    Name: DEF2-TZVPPD
    Role: ORBITAL
    Keyword: BASIS
    atoms 1-2 entry CU         line  1290 file /mnt/storage/home/zw18965/.conda/envs/p4env/share/psi4/basis/def2-tzvppd.gbs 

  Reading orbitals from file /tmp/Cu02N0.default.3797.180.npy, no projection.

  ==> Integral Setup <==

  DFHelper Memory: AOs need 0.078 GiB; user supplied 83.536 GiB. Using in-core AOs.

  ==> MemDFJK: Density-Fitted J/K Matrices <==

    J tasked:                   Yes
    K tasked:                   Yes
    wK tasked:                   No
    OpenMP threads:              28
    Memory [MiB]:             85540
    Algorithm:                 Core
    Schwarz Cutoff:           1E-12
    Mask sparsity (%):       4.9900
    Fitting Condition:        1E-10

   => Auxiliary Basis Set <=

  Basis Set: (DEF2-TZVPPD AUX)
    Blend: DEF2-UNIVERSAL-JKFIT
    Number of shells: 116
    Number of basis functions: 528
    Number of Cartesian functions: 754
    Spherical Harmonics?: true
    Max angular momentum: 6

  Cached 100.0% of DFT collocation blocks in 0.283 [GiB].

  Minimum eigenvalue in the overlap matrix is 1.8585173911E-03.
  Reciprocal condition number of the overlap matrix is 4.4355915683E-04.
    Using symmetric orthogonalization.

  ==> Pre-Iterations <==

  SCF Guess: Orbitals guess was supplied from a previous computation.

   -------------------------------------------------------
    Irrep   Nso     Nmo     Nalpha   Nbeta   Ndocc  Nsocc
   -------------------------------------------------------
     Ag        27      27       8       8       8       0
     B1g        8       8       1       1       1       0
     B2g       16      16       3       3       3       0
     B3g       16      16       3       3       3       0
     Au         8       8       1       1       1       0
     B1u       27      27       7       7       7       0
     B2u       16      16       3       3       3       0
     B3u       16      16       3       3       3       0
   -------------------------------------------------------
    Total     134     134      29      29      29       0
   -------------------------------------------------------

  ==> Iterations <==

                           Total Energy        Delta E     RMS |[F,P]|

   @DF-RKS iter   0: -3281.58576121542956   -3.28159e+03   1.73930e-03 
   @DF-RKS iter   1: -3281.57074336084679    1.50179e-02   1.10852e-04 DIIS
   @DF-RKS iter   2: -3281.57072126812409    2.20927e-05   2.74493e-04 DIIS
   @DF-RKS iter   3: -3281.57074835712046   -2.70890e-05   8.25183e-06 DIIS
   @DF-RKS iter   4: -3281.57074841841995   -6.12995e-08   2.84756e-06 DIIS
   @DF-RKS iter   5: -3281.57074842838938   -9.96943e-09   1.17104e-06 DIIS
   @DF-RKS iter   6: -3281.57074843026658   -1.87720e-09   3.19656e-07 DIIS
   @DF-RKS iter   7: -3281.57074843059218   -3.25599e-10   6.09063e-08 DIIS
   @DF-RKS iter   8: -3281.57074843063856   -4.63842e-11   3.07258e-08 DIIS
   @DF-RKS iter   9: -3281.57074843063810    4.54747e-13   4.14598e-09 DIIS
  Energy and wave function converged.


  ==> Post-Iterations <==

   Electrons on quadrature grid:
      Ntotal   =   58.0000023004 ; deviation = 2.300e-06 

    Orbital Energies [Eh]
    ---------------------

    Doubly Occupied:                                                      

       1B1u -320.684927     1Ag  -320.684912     2B1u  -37.854826  
       2Ag   -37.854610     3B1u  -33.706784     3Ag   -33.706774  
       1B3g  -33.704104     1B2g  -33.704104     1B2u  -33.704095  
       1B3u  -33.704095     4Ag    -4.075373     4B1u   -4.074633  
       5Ag    -2.749496     2B3u   -2.744249     2B2u   -2.744249  
       5B1u   -2.743759     2B2g   -2.743758     2B3g   -2.743758  
       6Ag    -0.344390     3B3u   -0.332889     3B2u   -0.332889  
       7Ag    -0.316919     1B1g   -0.316916     6B1u   -0.309081  
       1Au    -0.309077     3B2g   -0.297734     3B3g   -0.297734  
       7B1u   -0.293366     8Ag    -0.236220  

    Virtual:                                                              

       8B1u   -0.062296     4B2u   -0.007091     4B3u   -0.007091  
       9Ag     0.035141     4B3g    0.074320     4B2g    0.074320  
       9B1u    0.084783    10Ag     0.140529    11Ag     0.159211  
       5B3u    0.159735     5B2u    0.159735    12Ag     0.195805  
       2B1g    0.195808     5B3g    0.204268     5B2g    0.204268  
      10B1u    0.227544    11B1u    0.264520     6B2u    0.266786  
       6B3u    0.266786    12B1u    0.282712     2Au     0.282714  
      13Ag     0.370934     6B3g    0.386047     6B2g    0.386047  
      13B1u    0.555442    14Ag     0.678798     7B3u    0.696449  
       7B2u    0.696449     7B3g    0.781573     7B2g    0.781573  
      14B1u    0.835734     8B2u    0.881504     8B3u    0.881504  
       3B1g    0.915113    15Ag     0.915142     3Au     0.992060  
      15B1u    0.992090    16Ag     1.017577     8B3g    1.128005  
       8B2g    1.128005    16B1u    1.333129     9B3u    2.975098  
       9B2u    2.975098    17Ag     3.020806    17B1u    3.036317  
       9B3g    3.059112     9B2g    3.059112    18Ag     3.105135  
      10B3u    3.393779    10B2u    3.393779    19Ag     3.418609  
       4B1g    3.418676    20Ag     3.418706    11B2u    3.430264  
      11B3u    3.430264    10B3g    3.430721    10B2g    3.430721  
       4Au     3.430767    18B1u    3.430799    11B3g    3.437830  
      11B2g    3.437830    19B1u    3.457623    20B1u    3.553671  
      21Ag     3.615687     5B1g    3.615696    21B1u    3.659439  
       5Au     3.659446    12B2u    3.676655    12B3u    3.676655  
      12B3g    3.758883    12B2g    3.758883    22Ag     3.930748  
      22B1u    4.069497    23Ag    12.717938    13B2u   12.718179  
      13B3u   12.718179    13B3g   12.718675    13B2g   12.718675  
      24Ag    12.718989    23B1u   12.719014     6B1g   12.719015  
       6Au    12.719039    24B1u   12.719740    14B2u   12.720490  
      14B3u   12.720490    14B3g   12.720490    14B2g   12.720490  
      25B1u   12.721924    25Ag    12.721924     7Au    12.722086  
       7B1g   12.722087    26Ag    12.873112    15B3u   12.876083  
      15B2u   12.876083     8B1g   12.878399    27Ag    12.878522  
      16B2u   12.879676    16B3u   12.879676    15B3g   12.879804  
      15B2g   12.879804     8Au    12.881203    26B1u   12.881326  
      16B2g   12.901264    16B3g   12.901264    27B1u   13.006995  

    Final Occupation by Irrep:
             Ag   B1g   B2g   B3g    Au   B1u   B2u   B3u 
    DOCC [     8,    1,    3,    3,    1,    7,    3,    3 ]

  @DF-RKS Final Energy: -3281.57074843063810

   => Energetics <=

    Nuclear Repulsion Energy =            198.3420318849417470
    One-Electron Energy =               -4971.6749830907983778
    Two-Electron Energy =                1568.9634703182789508
    DFT Exchange-Correlation Energy =     -77.2012360030608562
    Empirical Dispersion Energy =          -0.0000315400000000
    VV10 Nonlocal Energy =                  0.0000000000000000
    Total Energy =                      -3281.5707484306376500

Computation Completed


Properties will be evaluated at   0.000000,   0.000000,   0.000000 [a0]

Properties computed using the SCF density matrix

  Nuclear Dipole Moment: [e a0]
     X:     0.0000      Y:     0.0000      Z:     0.0000

  Electronic Dipole Moment: [e a0]
     X:     0.0000      Y:     0.0000      Z:     0.0000

  Dipole Moment: [e a0]
     X:     0.0000      Y:     0.0000      Z:     0.0000     Total:     0.0000

  Dipole Moment: [D]
     X:     0.0000      Y:     0.0000      Z:     0.0000     Total:     0.0000


*** tstop() called on compute181.bc4.acrc.priv at Tue Nov  2 10:30:23 2021
Module time:
	user time   =      28.90 seconds =       0.48 minutes
	system time =       1.06 seconds =       0.02 minutes
	total time  =          2 seconds =       0.03 minutes
Total time:
	user time   =     116.19 seconds =       1.94 minutes
	system time =       9.22 seconds =       0.15 minutes
	total time  =         16 seconds =       0.27 minutes

*** tstart() called on compute181.bc4.acrc.priv
*** at Tue Nov  2 10:30:23 2021


         ------------------------------------------------------------
                                   SCF GRAD                          
                          Rob Parrish, Justin Turney,                
                       Andy Simmonett, and Alex Sokolov              
         ------------------------------------------------------------

  ==> Geometry <==

    Molecular point group: d2h
    Full point group: D_inf_h

    Geometry (in Angstrom), charge = 0, multiplicity = 1:

       Center              X                  Y                   Z               Mass       
    ------------   -----------------  -----------------  -----------------  -----------------
         CU           0.000000000000     0.000000000000     1.121895419604    62.929597720000
         CU           0.000000000000     0.000000000000    -1.121895419604    62.929597720000

  Nuclear repulsion =  198.342031884941747

  ==> Basis Set <==

  Basis Set: DEF2-TZVPPD
    Blend: DEF2-TZVPPD
    Number of shells: 38
    Number of basis functions: 134
    Number of Cartesian functions: 166
    Spherical Harmonics?: true
    Max angular momentum: 4

  ==> DFJKGrad: Density-Fitted SCF Gradients <==

    Gradient:                    1
    J tasked:                  Yes
    K tasked:                  Yes
    wK tasked:                  No
    OpenMP threads:             28
    Integrals threads:          28
    Memory [MiB]:            85830
    Schwarz Cutoff:          1E-12
    Fitting Condition:       1E-10

   => Auxiliary Basis Set <=

  Basis Set: (DEF2-TZVPPD AUX)
    Blend: DEF2-UNIVERSAL-JKFIT
    Number of shells: 116
    Number of basis functions: 528
    Number of Cartesian functions: 754
    Spherical Harmonics?: true
    Max angular momentum: 6

  ==> DFT Potential <==

   => Composite Functional: MN15-D3BJ <= 

   MN15 Hybrid Meta-GGA Exchange-Correlation Functional

    H. S. Yu, X. He, S. L. Li, and D. G. Truhlar, Chem. Sci. 7, 5032-5051, 2016


    Deriv               =              1
    GGA                 =           TRUE
    Meta                =           TRUE

    Exchange Hybrid     =           TRUE
    MP2 Hybrid          =          FALSE

   => Exchange Functionals <=

    1.0000   XC_HYB_MGGA_X_MN15

   => Exact (HF) Exchange <=

    0.4400               HF 

   => Correlation Functionals <=

    1.0000   XC_MGGA_C_MN15

   => LibXC Density Thresholds  <==

    XC_MGGA_C_MN15:  1.00E-15 
    XC_HYB_MGGA_X_MN15:  1.00E-15 

   => Molecular Quadrature <=

    Radial Scheme          =       TREUTLER
    Pruning Scheme         =           NONE
    Nuclear Scheme         =       TREUTLER

    BS radius alpha        =              1
    Pruning alpha          =              1
    Radial Points          =             75
    Spherical Points       =            302
    Total Points           =          43516
    Total Blocks           =            430
    Max Points             =            254
    Max Functions          =            129
    Weights Tolerance      =       1.00E-15


  -Total Gradient:
     Atom            X                  Y                   Z
    ------   -----------------  -----------------  -----------------
       1        0.000000000000     0.000000000000    -0.004930755947
       2        0.000000000000     0.000000000000     0.004930755947


*** tstop() called on compute181.bc4.acrc.priv at Tue Nov  2 10:30:30 2021
Module time:
	user time   =      39.85 seconds =       0.66 minutes
	system time =       1.60 seconds =       0.03 minutes
	total time  =          7 seconds =       0.12 minutes
Total time:
	user time   =     159.45 seconds =       2.66 minutes
	system time =      10.97 seconds =       0.18 minutes
	total time  =         23 seconds =       0.38 minutes

			-----------------------------------------
			 OPTKING 2.0: for geometry optimizations 
			  - R.A. King,  Bethel University        
			-----------------------------------------
	At level 1: Red. Int., RFO, no backsteps, dynamic trust

	Previous internal coordinate definitions found.
	---Fragment 1 Geometry and Gradient---
	 CU          0.0000000000        0.0000000000        2.1200750845
	 CU          0.0000000000        0.0000000000       -2.1200750845
	             0.0000000000        0.0000000000       -0.0049307559
	             0.0000000000        0.0000000000        0.0049307559

	---Fragment 1 Intrafragment Coordinates---
	 - Coordinate -           - BOHR/RAD -       - ANG/DEG -
	 R(1,2)           =         4.240150	       2.243791

	Current energy   :     -3281.5707484306

	Energy change for the previous step:
		Projected    :         0.0009365168
		Actual       :        -0.0004023225

	Performing BFGS update.
	Previous computed or guess Hessian on step 1.
	Steps to be used in Hessian update: 1
	Taking RFO optimization step.
	Going to follow RFO solution 1.
	Using RFO vector 1.
	Norm of target step-size    0.05312
	Projected energy change by RFO approximation:         0.0011458012

	Back-transformation to cartesian coordinates...
	Successfully converged to displaced geometry.

	--- Internal Coordinate Step in ANG or DEG, aJ/ANG or AJ/DEG ---
	 ---------------------------------------------------------------------------
	   Coordinate                Previous        Force       Change         New 
	   ----------                --------       ------       ------       ------
	    1 R(1,2)          =      2.243791     0.040623     0.028111     2.271902
	 ---------------------------------------------------------------------------
	Successfully symmetrized geometry.

  ==> Convergence Check <==

  Measures of convergence in internal coordinates in au.
  Criteria marked as inactive (o), active & met (*), and active & unmet ( ).
  ---------------------------------------------------------------------------------------------
   Step     Total Energy     Delta E     MAX Force     RMS Force      MAX Disp      RMS Disp   
  ---------------------------------------------------------------------------------------------
    Convergence Criteria    1.00e-06 *    3.00e-04 *             o    1.20e-03 *             o
  ---------------------------------------------------------------------------------------------
      2   -3281.57074843   -4.02e-04      4.93e-03      4.93e-03 o    5.31e-02      5.31e-02 o  ~
  ---------------------------------------------------------------------------------------------

	Writing optimization data to binary file.
	Structure for next step:
	Cartesian Geometry (in Angstrom)
	   CU     0.0000000000   0.0000000000   1.1359508511
	   CU     0.0000000000   0.0000000000  -1.1359508511
			--------------------------
			 OPTKING Finished Execution 
			--------------------------

    Structure for next step:
    Molecular point group: d2h
    Full point group: D_inf_h

    Geometry (in Angstrom), charge = 0, multiplicity = 1:

    CU           0.000000000000     0.000000000000     1.135950855609
    CU           0.000000000000     0.000000000000    -1.135950855609


Scratch directory: /tmp/
gradient() will perform analytic gradient computation.

*** tstart() called on compute181.bc4.acrc.priv
*** at Tue Nov  2 10:30:30 2021

   => Loading Basis Set <=

    Name: DEF2-TZVPPD
    Role: ORBITAL
    Keyword: BASIS
    atoms 1-2 entry CU         line  1290 file /mnt/storage/home/zw18965/.conda/envs/p4env/share/psi4/basis/def2-tzvppd.gbs 

   => MN15-D3(BJ): Empirical Dispersion <=

    Grimme's -D3 (BJ-damping) Dispersion Correction
    Grimme S.; Ehrlich S.; Goerigk L. (2011), J. Comput. Chem., 32: 1456
    Parametrisation from:    L. Goerigk, A. Hansen, C. Bauer, S. Ehrlich, A. Najibi, S. Grimme, Phys. Chem. Chem. Phys. 19, 32184-32215, 2017

        s6 =       1.000000
        s8 =       2.097100
        a1 =       0.786200
        a2 =       7.592300


         ---------------------------------------------------------
                                   SCF
               by Justin Turney, Rob Parrish, Andy Simmonett
                          and Daniel G. A. Smith
                              RKS Reference
                       28 Threads, 114440 MiB Core
         ---------------------------------------------------------

  ==> Geometry <==

    Molecular point group: d2h
    Full point group: D_inf_h

    Geometry (in Angstrom), charge = 0, multiplicity = 1:

       Center              X                  Y                   Z               Mass       
    ------------   -----------------  -----------------  -----------------  -----------------
         CU           0.000000000000     0.000000000000     1.135950855609    62.929597720000
         CU           0.000000000000     0.000000000000    -1.135950855609    62.929597720000

  Running in d2h symmetry.

  Rotational constants: A = ************  B =      0.10380  C =      0.10380 [cm^-1]
  Rotational constants: A = ************  B =   3111.81065  C =   3111.81065 [MHz]
  Nuclear repulsion =  195.887890737476738

  Charge       = 0
  Multiplicity = 1
  Electrons    = 58
  Nalpha       = 29
  Nbeta        = 29

  ==> Algorithm <==

  SCF Algorithm Type is DF.
  DIIS enabled.
  MOM disabled.
  Fractional occupation disabled.
  Guess Type is READ.
  Energy threshold   = 1.00e-08
  Density threshold  = 1.00e-08
  Integral threshold = 1.00e-12

  ==> Primary Basis <==

  Basis Set: DEF2-TZVPPD
    Blend: DEF2-TZVPPD
    Number of shells: 38
    Number of basis functions: 134
    Number of Cartesian functions: 166
    Spherical Harmonics?: true
    Max angular momentum: 4

  ==> DFT Potential <==

   => Composite Functional: MN15-D3BJ <= 

   MN15 Hybrid Meta-GGA Exchange-Correlation Functional

    H. S. Yu, X. He, S. L. Li, and D. G. Truhlar, Chem. Sci. 7, 5032-5051, 2016


    Deriv               =              1
    GGA                 =           TRUE
    Meta                =           TRUE

    Exchange Hybrid     =           TRUE
    MP2 Hybrid          =          FALSE

   => Exchange Functionals <=

    1.0000   XC_HYB_MGGA_X_MN15

   => Exact (HF) Exchange <=

    0.4400               HF 

   => Correlation Functionals <=

    1.0000   XC_MGGA_C_MN15

   => LibXC Density Thresholds  <==

    XC_MGGA_C_MN15:  1.00E-15 
    XC_HYB_MGGA_X_MN15:  1.00E-15 

   => Molecular Quadrature <=

    Radial Scheme          =       TREUTLER
    Pruning Scheme         =           NONE
    Nuclear Scheme         =       TREUTLER

    BS radius alpha        =              1
    Pruning alpha          =              1
    Radial Points          =             75
    Spherical Points       =            302
    Total Points           =          43516
    Total Blocks           =            428
    Max Points             =            252
    Max Functions          =            129
    Weights Tolerance      =       1.00E-15

   => Loading Basis Set <=

    Name: (DEF2-TZVPPD AUX)
    Role: JKFIT
    Keyword: DF_BASIS_SCF
    atoms 1-2 entry CU         line  2356 file /mnt/storage/home/zw18965/.conda/envs/p4env/share/psi4/basis/def2-universal-jkfit.gbs 

   => Loading Basis Set <=

    Name: DEF2-TZVPPD
    Role: ORBITAL
    Keyword: BASIS
    atoms 1-2 entry CU         line  1290 file /mnt/storage/home/zw18965/.conda/envs/p4env/share/psi4/basis/def2-tzvppd.gbs 

  Reading orbitals from file /tmp/Cu02N0.default.3797.180.npy, no projection.

  ==> Integral Setup <==

  DFHelper Memory: AOs need 0.078 GiB; user supplied 83.537 GiB. Using in-core AOs.

  ==> MemDFJK: Density-Fitted J/K Matrices <==

    J tasked:                   Yes
    K tasked:                   Yes
    wK tasked:                   No
    OpenMP threads:              28
    Memory [MiB]:             85541
    Algorithm:                 Core
    Schwarz Cutoff:           1E-12
    Mask sparsity (%):       5.3464
    Fitting Condition:        1E-10

   => Auxiliary Basis Set <=

  Basis Set: (DEF2-TZVPPD AUX)
    Blend: DEF2-UNIVERSAL-JKFIT
    Number of shells: 116
    Number of basis functions: 528
    Number of Cartesian functions: 754
    Spherical Harmonics?: true
    Max angular momentum: 6

  Cached 100.0% of DFT collocation blocks in 0.282 [GiB].

  Minimum eigenvalue in the overlap matrix is 1.9237382188E-03.
  Reciprocal condition number of the overlap matrix is 4.6152096164E-04.
    Using symmetric orthogonalization.

  ==> Pre-Iterations <==

  SCF Guess: Orbitals guess was supplied from a previous computation.

   -------------------------------------------------------
    Irrep   Nso     Nmo     Nalpha   Nbeta   Ndocc  Nsocc
   -------------------------------------------------------
     Ag        27      27       8       8       8       0
     B1g        8       8       1       1       1       0
     B2g       16      16       3       3       3       0
     B3g       16      16       3       3       3       0
     Au         8       8       1       1       1       0
     B1u       27      27       7       7       7       0
     B2u       16      16       3       3       3       0
     B3u       16      16       3       3       3       0
   -------------------------------------------------------
    Total     134     134      29      29      29       0
   -------------------------------------------------------

  ==> Iterations <==

                           Total Energy        Delta E     RMS |[F,P]|

   @DF-RKS iter   0: -3281.58454313803895   -3.28158e+03   1.60639e-03 
   @DF-RKS iter   1: -3281.57088668986535    1.36564e-02   9.19366e-05 DIIS
   @DF-RKS iter   2: -3281.57087263683025    1.40530e-05   2.22604e-04 DIIS
   @DF-RKS iter   3: -3281.57089033070997   -1.76939e-05   1.00403e-05 DIIS
   @DF-RKS iter   4: -3281.57089041174913   -8.10392e-08   2.24982e-06 DIIS
   @DF-RKS iter   5: -3281.57089042180269   -1.00536e-08   1.33492e-06 DIIS
   @DF-RKS iter   6: -3281.57089042396137   -2.15869e-09   3.25591e-07 DIIS
   @DF-RKS iter   7: -3281.57089042433154   -3.70164e-10   6.50051e-08 DIIS
   @DF-RKS iter   8: -3281.57089042437883   -4.72937e-11   3.21393e-08 DIIS
   @DF-RKS iter   9: -3281.57089042438065   -1.81899e-12   3.70217e-09 DIIS
  Energy and wave function converged.


  ==> Post-Iterations <==

   Electrons on quadrature grid:
      Ntotal   =   57.9999985785 ; deviation = -1.421e-06 

    Orbital Energies [Eh]
    ---------------------

    Doubly Occupied:                                                      

       1B1u -320.684674     1Ag  -320.684660     2B1u  -37.854414  
       2Ag   -37.854198     3B1u  -33.706363     3Ag   -33.706352  
       1B3g  -33.703747     1B2g  -33.703747     1B2u  -33.703739  
       1B3u  -33.703739     4Ag    -4.074918     4B1u   -4.074291  
       5Ag    -2.748598     2B2u   -2.743938     2B3u   -2.743938  
       2B3g   -2.743509     2B2g   -2.743509     5B1u   -2.743504  
       6Ag    -0.342343     3B2u   -0.331383     3B3u   -0.331383  
       7Ag    -0.316438     1B1g   -0.316435     6B1u   -0.309096  
       1Au    -0.309092     3B3g   -0.298257     3B2g   -0.298257  
       7B1u   -0.294000     8Ag    -0.235486  

    Virtual:                                                              

       8B1u   -0.063153     4B3u   -0.006943     4B2u   -0.006943  
       9Ag     0.034395     4B2g    0.073550     4B3g    0.073550  
       9B1u    0.084874    10Ag     0.140374    11Ag     0.159006  
       5B3u    0.159973     5B2u    0.159973    12Ag     0.195636  
       2B1g    0.195639     5B2g    0.203716     5B3g    0.203716  
      10B1u    0.226802    11B1u    0.262972     6B3u    0.265577  
       6B2u    0.265577    12B1u    0.281928     2Au     0.281930  
      13Ag     0.370430     6B3g    0.384578     6B2g    0.384578  
      13B1u    0.550095    14Ag     0.677297     7B3u    0.699002  
       7B2u    0.699002     7B3g    0.779755     7B2g    0.779755  
      14B1u    0.834056     8B3u    0.879552     8B2u    0.879552  
       3B1g    0.916952    15Ag     0.916988     3Au     0.990494  
      15B1u    0.990530    16Ag     1.012884     8B3g    1.123831  
       8B2g    1.123831    16B1u    1.324316     9B3u    2.974740  
       9B2u    2.974740    17Ag     3.020093    17B1u    3.044932  
       9B2g    3.058717     9B3g    3.058717    18Ag     3.090097  
      10B2u    3.396144    10B3u    3.396144     4B1g    3.420239  
      19Ag     3.420276    20Ag     3.426810    11B3u    3.430404  
      11B2u    3.430404     4Au     3.430534    18B1u    3.430578  
      10B2g    3.430765    10B3g    3.430765    11B3g    3.435132  
      11B2g    3.435132    19B1u    3.449705    20B1u    3.541037  
       5B1g    3.615599    21Ag     3.615613     5Au     3.658913  
      21B1u    3.658924    12B2u    3.671593    12B3u    3.671593  
      12B3g    3.756557    12B2g    3.756557    22Ag     3.918721  
      22B1u    4.061925    23Ag    12.718485    13B3u   12.718610  
      13B2u   12.718610    13B2g   12.719029    13B3g   12.719029  
       6B1g   12.719397    24Ag    12.719400     6Au    12.719417  
      23B1u   12.719420    24B1u   12.720201    14B3u   12.720787  
      14B2u   12.720787    14B2g   12.720787    14B3g   12.720787  
      25B1u   12.722090    25Ag    12.722091     7Au    12.722241  
       7B1g   12.722242    26Ag    12.877045    15B2u   12.877596  
      15B3u   12.877596     8B1g   12.879034    27Ag    12.879166  
      16B3u   12.879949    16B2u   12.879949    15B2g   12.880046  
      15B3g   12.880046     8Au    12.881291    26B1u   12.881422  
      16B3g   12.898487    16B2g   12.898487    27B1u   12.994246  

    Final Occupation by Irrep:
             Ag   B1g   B2g   B3g    Au   B1u   B2u   B3u 
    DOCC [     8,    1,    3,    3,    1,    7,    3,    3 ]

  @DF-RKS Final Energy: -3281.57089042438065

   => Energetics <=

    Nuclear Repulsion Energy =            195.8878907374767380
    One-Electron Energy =               -4966.7923816352531503
    Two-Electron Energy =                1566.5328620035725180
    DFT Exchange-Correlation Energy =     -77.1992299501759476
    Empirical Dispersion Energy =          -0.0000315800000000
    VV10 Nonlocal Energy =                  0.0000000000000000
    Total Energy =                      -3281.5708904243797406

Computation Completed


Properties will be evaluated at   0.000000,   0.000000,   0.000000 [a0]

Properties computed using the SCF density matrix

  Nuclear Dipole Moment: [e a0]
     X:     0.0000      Y:     0.0000      Z:     0.0000

  Electronic Dipole Moment: [e a0]
     X:     0.0000      Y:     0.0000      Z:     0.0000

  Dipole Moment: [e a0]
     X:     0.0000      Y:     0.0000      Z:     0.0000     Total:     0.0000

  Dipole Moment: [D]
     X:     0.0000      Y:     0.0000      Z:     0.0000     Total:     0.0000


*** tstop() called on compute181.bc4.acrc.priv at Tue Nov  2 10:30:32 2021
Module time:
	user time   =      29.19 seconds =       0.49 minutes
	system time =       1.17 seconds =       0.02 minutes
	total time  =          2 seconds =       0.03 minutes
Total time:
	user time   =     189.11 seconds =       3.15 minutes
	system time =      12.16 seconds =       0.20 minutes
	total time  =         25 seconds =       0.42 minutes

*** tstart() called on compute181.bc4.acrc.priv
*** at Tue Nov  2 10:30:32 2021


         ------------------------------------------------------------
                                   SCF GRAD                          
                          Rob Parrish, Justin Turney,                
                       Andy Simmonett, and Alex Sokolov              
         ------------------------------------------------------------

  ==> Geometry <==

    Molecular point group: d2h
    Full point group: D_inf_h

    Geometry (in Angstrom), charge = 0, multiplicity = 1:

       Center              X                  Y                   Z               Mass       
    ------------   -----------------  -----------------  -----------------  -----------------
         CU           0.000000000000     0.000000000000     1.135950855609    62.929597720000
         CU           0.000000000000     0.000000000000    -1.135950855609    62.929597720000

  Nuclear repulsion =  195.887890737476738

  ==> Basis Set <==

  Basis Set: DEF2-TZVPPD
    Blend: DEF2-TZVPPD
    Number of shells: 38
    Number of basis functions: 134
    Number of Cartesian functions: 166
    Spherical Harmonics?: true
    Max angular momentum: 4

  ==> DFJKGrad: Density-Fitted SCF Gradients <==

    Gradient:                    1
    J tasked:                  Yes
    K tasked:                  Yes
    wK tasked:                  No
    OpenMP threads:             28
    Integrals threads:          28
    Memory [MiB]:            85830
    Schwarz Cutoff:          1E-12
    Fitting Condition:       1E-10

   => Auxiliary Basis Set <=

  Basis Set: (DEF2-TZVPPD AUX)
    Blend: DEF2-UNIVERSAL-JKFIT
    Number of shells: 116
    Number of basis functions: 528
    Number of Cartesian functions: 754
    Spherical Harmonics?: true
    Max angular momentum: 6

  ==> DFT Potential <==

   => Composite Functional: MN15-D3BJ <= 

   MN15 Hybrid Meta-GGA Exchange-Correlation Functional

    H. S. Yu, X. He, S. L. Li, and D. G. Truhlar, Chem. Sci. 7, 5032-5051, 2016


    Deriv               =              1
    GGA                 =           TRUE
    Meta                =           TRUE

    Exchange Hybrid     =           TRUE
    MP2 Hybrid          =          FALSE

   => Exchange Functionals <=

    1.0000   XC_HYB_MGGA_X_MN15

   => Exact (HF) Exchange <=

    0.4400               HF 

   => Correlation Functionals <=

    1.0000   XC_MGGA_C_MN15

   => LibXC Density Thresholds  <==

    XC_MGGA_C_MN15:  1.00E-15 
    XC_HYB_MGGA_X_MN15:  1.00E-15 

   => Molecular Quadrature <=

    Radial Scheme          =       TREUTLER
    Pruning Scheme         =           NONE
    Nuclear Scheme         =       TREUTLER

    BS radius alpha        =              1
    Pruning alpha          =              1
    Radial Points          =             75
    Spherical Points       =            302
    Total Points           =          43516
    Total Blocks           =            428
    Max Points             =            252
    Max Functions          =            129
    Weights Tolerance      =       1.00E-15


  -Total Gradient:
     Atom            X                  Y                   Z
    ------   -----------------  -----------------  -----------------
       1        0.000000000000     0.000000000000    -0.000554368449
       2        0.000000000000     0.000000000000     0.000554368449


*** tstop() called on compute181.bc4.acrc.priv at Tue Nov  2 10:30:39 2021
Module time:
	user time   =      39.50 seconds =       0.66 minutes
	system time =       1.55 seconds =       0.03 minutes
	total time  =          7 seconds =       0.12 minutes
Total time:
	user time   =     232.07 seconds =       3.87 minutes
	system time =      13.88 seconds =       0.23 minutes
	total time  =         32 seconds =       0.53 minutes

			-----------------------------------------
			 OPTKING 2.0: for geometry optimizations 
			  - R.A. King,  Bethel University        
			-----------------------------------------
	At level 1: Red. Int., RFO, no backsteps, dynamic trust

	Previous internal coordinate definitions found.
	---Fragment 1 Geometry and Gradient---
	 CU          0.0000000000        0.0000000000        2.1466360091
	 CU          0.0000000000        0.0000000000       -2.1466360091
	             0.0000000000        0.0000000000       -0.0005543684
	             0.0000000000        0.0000000000        0.0005543684

	---Fragment 1 Intrafragment Coordinates---
	 - Coordinate -           - BOHR/RAD -       - ANG/DEG -
	 R(1,2)           =         4.293272	       2.271902

	Current energy   :     -3281.5708904244

	Energy change for the previous step:
		Projected    :         0.0011458012
		Actual       :        -0.0001419937

	Performing BFGS update.
	Previous computed or guess Hessian on step 1.
	Steps to be used in Hessian update: 2 1
	Taking RFO optimization step.
	Going to follow RFO solution 1.
	Using RFO vector 1.
	Norm of target step-size    0.00633
	Projected energy change by RFO approximation:         0.0000165418

	Back-transformation to cartesian coordinates...
	Successfully converged to displaced geometry.

	--- Internal Coordinate Step in ANG or DEG, aJ/ANG or AJ/DEG ---
	 ---------------------------------------------------------------------------
	   Coordinate                Previous        Force       Change         New 
	   ----------                --------       ------       ------       ------
	    1 R(1,2)          =      2.271902     0.004567     0.003351     2.275253
	 ---------------------------------------------------------------------------
	Successfully symmetrized geometry.

  ==> Convergence Check <==

  Measures of convergence in internal coordinates in au.
  Criteria marked as inactive (o), active & met (*), and active & unmet ( ).
  ---------------------------------------------------------------------------------------------
   Step     Total Energy     Delta E     MAX Force     RMS Force      MAX Disp      RMS Disp   
  ---------------------------------------------------------------------------------------------
    Convergence Criteria    1.00e-06 *    3.00e-04 *             o    1.20e-03 *             o
  ---------------------------------------------------------------------------------------------
      3   -3281.57089042   -1.42e-04      5.54e-04      5.54e-04 o    6.33e-03      6.33e-03 o  ~
  ---------------------------------------------------------------------------------------------

	Writing optimization data to binary file.
	Structure for next step:
	Cartesian Geometry (in Angstrom)
	   CU     0.0000000000   0.0000000000   1.1376264817
	   CU     0.0000000000   0.0000000000  -1.1376264817
			--------------------------
			 OPTKING Finished Execution 
			--------------------------

    Structure for next step:
    Molecular point group: d2h
    Full point group: D_inf_h

    Geometry (in Angstrom), charge = 0, multiplicity = 1:

    CU           0.000000000000     0.000000000000     1.137626486220
    CU           0.000000000000     0.000000000000    -1.137626486220


Scratch directory: /tmp/
gradient() will perform analytic gradient computation.

*** tstart() called on compute181.bc4.acrc.priv
*** at Tue Nov  2 10:30:39 2021

   => Loading Basis Set <=

    Name: DEF2-TZVPPD
    Role: ORBITAL
    Keyword: BASIS
    atoms 1-2 entry CU         line  1290 file /mnt/storage/home/zw18965/.conda/envs/p4env/share/psi4/basis/def2-tzvppd.gbs 

   => MN15-D3(BJ): Empirical Dispersion <=

    Grimme's -D3 (BJ-damping) Dispersion Correction
    Grimme S.; Ehrlich S.; Goerigk L. (2011), J. Comput. Chem., 32: 1456
    Parametrisation from:    L. Goerigk, A. Hansen, C. Bauer, S. Ehrlich, A. Najibi, S. Grimme, Phys. Chem. Chem. Phys. 19, 32184-32215, 2017

        s6 =       1.000000
        s8 =       2.097100
        a1 =       0.786200
        a2 =       7.592300


         ---------------------------------------------------------
                                   SCF
               by Justin Turney, Rob Parrish, Andy Simmonett
                          and Daniel G. A. Smith
                              RKS Reference
                       28 Threads, 114440 MiB Core
         ---------------------------------------------------------

  ==> Geometry <==

    Molecular point group: d2h
    Full point group: D_inf_h

    Geometry (in Angstrom), charge = 0, multiplicity = 1:

       Center              X                  Y                   Z               Mass       
    ------------   -----------------  -----------------  -----------------  -----------------
         CU           0.000000000000     0.000000000000     1.137626486220    62.929597720000
         CU           0.000000000000     0.000000000000    -1.137626486220    62.929597720000

  Running in d2h symmetry.

  Rotational constants: A = ************  B =      0.10349  C =      0.10349 [cm^-1]
  Rotational constants: A = ************  B =   3102.65051  C =   3102.65051 [MHz]
  Nuclear repulsion =  195.599363923204606

  Charge       = 0
  Multiplicity = 1
  Electrons    = 58
  Nalpha       = 29
  Nbeta        = 29

  ==> Algorithm <==

  SCF Algorithm Type is DF.
  DIIS enabled.
  MOM disabled.
  Fractional occupation disabled.
  Guess Type is READ.
  Energy threshold   = 1.00e-08
  Density threshold  = 1.00e-08
  Integral threshold = 1.00e-12

  ==> Primary Basis <==

  Basis Set: DEF2-TZVPPD
    Blend: DEF2-TZVPPD
    Number of shells: 38
    Number of basis functions: 134
    Number of Cartesian functions: 166
    Spherical Harmonics?: true
    Max angular momentum: 4

  ==> DFT Potential <==

   => Composite Functional: MN15-D3BJ <= 

   MN15 Hybrid Meta-GGA Exchange-Correlation Functional

    H. S. Yu, X. He, S. L. Li, and D. G. Truhlar, Chem. Sci. 7, 5032-5051, 2016


    Deriv               =              1
    GGA                 =           TRUE
    Meta                =           TRUE

    Exchange Hybrid     =           TRUE
    MP2 Hybrid          =          FALSE

   => Exchange Functionals <=

    1.0000   XC_HYB_MGGA_X_MN15

   => Exact (HF) Exchange <=

    0.4400               HF 

   => Correlation Functionals <=

    1.0000   XC_MGGA_C_MN15

   => LibXC Density Thresholds  <==

    XC_MGGA_C_MN15:  1.00E-15 
    XC_HYB_MGGA_X_MN15:  1.00E-15 

   => Molecular Quadrature <=

    Radial Scheme          =       TREUTLER
    Pruning Scheme         =           NONE
    Nuclear Scheme         =       TREUTLER

    BS radius alpha        =              1
    Pruning alpha          =              1
    Radial Points          =             75
    Spherical Points       =            302
    Total Points           =          43516
    Total Blocks           =            430
    Max Points             =            252
    Max Functions          =            129
    Weights Tolerance      =       1.00E-15

   => Loading Basis Set <=

    Name: (DEF2-TZVPPD AUX)
    Role: JKFIT
    Keyword: DF_BASIS_SCF
    atoms 1-2 entry CU         line  2356 file /mnt/storage/home/zw18965/.conda/envs/p4env/share/psi4/basis/def2-universal-jkfit.gbs 

   => Loading Basis Set <=

    Name: DEF2-TZVPPD
    Role: ORBITAL
    Keyword: BASIS
    atoms 1-2 entry CU         line  1290 file /mnt/storage/home/zw18965/.conda/envs/p4env/share/psi4/basis/def2-tzvppd.gbs 

  Reading orbitals from file /tmp/Cu02N0.default.3797.180.npy, no projection.

  ==> Integral Setup <==

  DFHelper Memory: AOs need 0.078 GiB; user supplied 83.537 GiB. Using in-core AOs.

  ==> MemDFJK: Density-Fitted J/K Matrices <==

    J tasked:                   Yes
    K tasked:                   Yes
    wK tasked:                   No
    OpenMP threads:              28
    Memory [MiB]:             85541
    Algorithm:                 Core
    Schwarz Cutoff:           1E-12
    Mask sparsity (%):       5.4355
    Fitting Condition:        1E-10

   => Auxiliary Basis Set <=

  Basis Set: (DEF2-TZVPPD AUX)
    Blend: DEF2-UNIVERSAL-JKFIT
    Number of shells: 116
    Number of basis functions: 528
    Number of Cartesian functions: 754
    Spherical Harmonics?: true
    Max angular momentum: 6

  Cached 100.0% of DFT collocation blocks in 0.282 [GiB].

  Minimum eigenvalue in the overlap matrix is 1.9316332803E-03.
  Reciprocal condition number of the overlap matrix is 4.6370198803E-04.
    Using symmetric orthogonalization.

  ==> Pre-Iterations <==

  SCF Guess: Orbitals guess was supplied from a previous computation.

   -------------------------------------------------------
    Irrep   Nso     Nmo     Nalpha   Nbeta   Ndocc  Nsocc
   -------------------------------------------------------
     Ag        27      27       8       8       8       0
     B1g        8       8       1       1       1       0
     B2g       16      16       3       3       3       0
     B3g       16      16       3       3       3       0
     Au         8       8       1       1       1       0
     B1u       27      27       7       7       7       0
     B2u       16      16       3       3       3       0
     B3u       16      16       3       3       3       0
   -------------------------------------------------------
    Total     134     134      29      29      29       0
   -------------------------------------------------------

  ==> Iterations <==

                           Total Energy        Delta E     RMS |[F,P]|

   @DF-RKS iter   0: -3281.57239937685517   -3.28157e+03   1.84414e-04 
   @DF-RKS iter   1: -3281.57089211030825    1.50727e-03   9.60651e-06 DIIS
   @DF-RKS iter   2: -3281.57089196941115    1.40897e-07   2.27399e-05 DIIS
   @DF-RKS iter   3: -3281.57089215282394   -1.83413e-07   1.37110e-06 DIIS
   @DF-RKS iter   4: -3281.57089215423002   -1.40608e-09   2.34336e-07 DIIS
   @DF-RKS iter   5: -3281.57089215438054   -1.50521e-10   1.73817e-07 DIIS
   @DF-RKS iter   6: -3281.57089215441647   -3.59250e-11   3.94770e-08 DIIS
   @DF-RKS iter   7: -3281.57089215442147   -5.00222e-12   8.15422e-09 DIIS
  Energy and wave function converged.


  ==> Post-Iterations <==

   Electrons on quadrature grid:
      Ntotal   =   57.9999981856 ; deviation = -1.814e-06 

    Orbital Energies [Eh]
    ---------------------

    Doubly Occupied:                                                      

       1B1u -320.684646     1Ag  -320.684632     2B1u  -37.854367  
       2Ag   -37.854151     3B1u  -33.706315     3Ag   -33.706304  
       1B2g  -33.703707     1B3g  -33.703707     1B2u  -33.703699  
       1B3u  -33.703699     4Ag    -4.074867     4B1u   -4.074253  
       5Ag    -2.748497     2B2u   -2.743904     2B3u   -2.743904  
       2B3g   -2.743482     2B2g   -2.743482     5B1u   -2.743475  
       6Ag    -0.342107     3B3u   -0.331212     3B2u   -0.331212  
       7Ag    -0.316385     1B1g   -0.316382     6B1u   -0.309099  
       1Au    -0.309096     3B2g   -0.298319     3B3g   -0.298319  
       7B1u   -0.294075     8Ag    -0.235399  

    Virtual:                                                              

       8B1u   -0.063256     4B2u   -0.006926     4B3u   -0.006926  
       9Ag     0.034306     4B2g    0.073457     4B3g    0.073457  
       9B1u    0.084884    10Ag     0.140354    11Ag     0.158983  
       5B3u    0.160000     5B2u    0.160000    12Ag     0.195615  
       2B1g    0.195619     5B3g    0.203650     5B2g    0.203650  
      10B1u    0.226714    11B1u    0.262787     6B2u    0.265431  
       6B3u    0.265431    12B1u    0.281834     2Au     0.281836  
      13Ag     0.370368     6B3g    0.384404     6B2g    0.384404  
      13B1u    0.549456    14Ag     0.677132     7B2u    0.699306  
       7B3u    0.699306     7B3g    0.779543     7B2g    0.779543  
      14B1u    0.833865     8B2u    0.879338     8B3u    0.879338  
       3B1g    0.917167    15Ag     0.917204     3Au     0.990309  
      15B1u    0.990345    16Ag     1.012322     8B2g    1.123325  
       8B3g    1.123325    16B1u    1.323264     9B2u    2.974707  
       9B3u    2.974707    17Ag     3.020009    17B1u    3.046058  
       9B3g    3.058658     9B2g    3.058658    18Ag     3.088322  
      10B2u    3.396405    10B3u    3.396405     4B1g    3.420410  
      19Ag     3.420448    20Ag     3.427652    11B2u    3.430417  
      11B3u    3.430417     4Au     3.430509    18B1u    3.430554  
      10B3g    3.430768    10B2g    3.430768    11B3g    3.434863  
      11B2g    3.434863    19B1u    3.448753    20B1u    3.539594  
       5B1g    3.615592    21Ag     3.615608     5Au     3.658847  
      21B1u    3.658860    12B2u    3.670964    12B3u    3.670964  
      12B3g    3.756285    12B2g    3.756285    22Ag     3.917207  
      22B1u    4.060990    23Ag    12.718544    13B2u   12.718658  
      13B3u   12.718658    13B3g   12.719068    13B2g   12.719068  
       6B1g   12.719440    24Ag    12.719445     6Au    12.719459  
      23B1u   12.719464    24B1u   12.720249    14B2u   12.720819  
      14B3u   12.720819    14B3g   12.720819    14B2g   12.720819  
      25B1u   12.722108    25Ag    12.722108     7Au    12.722257  
       7B1g   12.722258    26Ag    12.877471    15B3u   12.877755  
      15B2u   12.877755     8B1g   12.879103    27Ag    12.879236  
      16B2u   12.879978    16B3u   12.879978    15B3g   12.880073  
      15B2g   12.880073     8Au    12.881302    26B1u   12.881435  
      16B2g   12.898184    16B3g   12.898184    27B1u   12.992788  

    Final Occupation by Irrep:
             Ag   B1g   B2g   B3g    Au   B1u   B2u   B3u 
    DOCC [     8,    1,    3,    3,    1,    7,    3,    3 ]

  @DF-RKS Final Energy: -3281.57089215442147

   => Energetics <=

    Nuclear Repulsion Energy =            195.5993639232046064
    One-Electron Energy =               -4966.2181846019802833
    Two-Electron Energy =                1566.2469583676713683
    DFT Exchange-Correlation Energy =     -77.1989982533172565
    Empirical Dispersion Energy =          -0.0000315900000000
    VV10 Nonlocal Energy =                  0.0000000000000000
    Total Energy =                      -3281.5708921544219265

Computation Completed


Properties will be evaluated at   0.000000,   0.000000,   0.000000 [a0]

Properties computed using the SCF density matrix

  Nuclear Dipole Moment: [e a0]
     X:     0.0000      Y:     0.0000      Z:    -0.0000

  Electronic Dipole Moment: [e a0]
     X:     0.0000      Y:     0.0000      Z:     0.0000

  Dipole Moment: [e a0]
     X:     0.0000      Y:     0.0000      Z:    -0.0000     Total:     0.0000

  Dipole Moment: [D]
     X:     0.0000      Y:     0.0000      Z:    -0.0000     Total:     0.0000


*** tstop() called on compute181.bc4.acrc.priv at Tue Nov  2 10:30:41 2021
Module time:
	user time   =      26.61 seconds =       0.44 minutes
	system time =       0.99 seconds =       0.02 minutes
	total time  =          2 seconds =       0.03 minutes
Total time:
	user time   =     259.15 seconds =       4.32 minutes
	system time =      14.89 seconds =       0.25 minutes
	total time  =         34 seconds =       0.57 minutes

*** tstart() called on compute181.bc4.acrc.priv
*** at Tue Nov  2 10:30:41 2021


         ------------------------------------------------------------
                                   SCF GRAD                          
                          Rob Parrish, Justin Turney,                
                       Andy Simmonett, and Alex Sokolov              
         ------------------------------------------------------------

  ==> Geometry <==

    Molecular point group: d2h
    Full point group: D_inf_h

    Geometry (in Angstrom), charge = 0, multiplicity = 1:

       Center              X                  Y                   Z               Mass       
    ------------   -----------------  -----------------  -----------------  -----------------
         CU           0.000000000000     0.000000000000     1.137626486220    62.929597720000
         CU           0.000000000000     0.000000000000    -1.137626486220    62.929597720000

  Nuclear repulsion =  195.599363923204606

  ==> Basis Set <==

  Basis Set: DEF2-TZVPPD
    Blend: DEF2-TZVPPD
    Number of shells: 38
    Number of basis functions: 134
    Number of Cartesian functions: 166
    Spherical Harmonics?: true
    Max angular momentum: 4

  ==> DFJKGrad: Density-Fitted SCF Gradients <==

    Gradient:                    1
    J tasked:                  Yes
    K tasked:                  Yes
    wK tasked:                  No
    OpenMP threads:             28
    Integrals threads:          28
    Memory [MiB]:            85830
    Schwarz Cutoff:          1E-12
    Fitting Condition:       1E-10

   => Auxiliary Basis Set <=

  Basis Set: (DEF2-TZVPPD AUX)
    Blend: DEF2-UNIVERSAL-JKFIT
    Number of shells: 116
    Number of basis functions: 528
    Number of Cartesian functions: 754
    Spherical Harmonics?: true
    Max angular momentum: 6

  ==> DFT Potential <==

   => Composite Functional: MN15-D3BJ <= 

   MN15 Hybrid Meta-GGA Exchange-Correlation Functional

    H. S. Yu, X. He, S. L. Li, and D. G. Truhlar, Chem. Sci. 7, 5032-5051, 2016


    Deriv               =              1
    GGA                 =           TRUE
    Meta                =           TRUE

    Exchange Hybrid     =           TRUE
    MP2 Hybrid          =          FALSE

   => Exchange Functionals <=

    1.0000   XC_HYB_MGGA_X_MN15

   => Exact (HF) Exchange <=

    0.4400               HF 

   => Correlation Functionals <=

    1.0000   XC_MGGA_C_MN15

   => LibXC Density Thresholds  <==

    XC_MGGA_C_MN15:  1.00E-15 
    XC_HYB_MGGA_X_MN15:  1.00E-15 

   => Molecular Quadrature <=

    Radial Scheme          =       TREUTLER
    Pruning Scheme         =           NONE
    Nuclear Scheme         =       TREUTLER

    BS radius alpha        =              1
    Pruning alpha          =              1
    Radial Points          =             75
    Spherical Points       =            302
    Total Points           =          43516
    Total Blocks           =            430
    Max Points             =            252
    Max Functions          =            129
    Weights Tolerance      =       1.00E-15


  -Total Gradient:
     Atom            X                  Y                   Z
    ------   -----------------  -----------------  -----------------
       1        0.000000000000    -0.000000000000    -0.000066258155
       2        0.000000000000    -0.000000000000     0.000066258155


*** tstop() called on compute181.bc4.acrc.priv at Tue Nov  2 10:30:48 2021
Module time:
	user time   =      39.00 seconds =       0.65 minutes
	system time =       1.41 seconds =       0.02 minutes
	total time  =          7 seconds =       0.12 minutes
Total time:
	user time   =     301.54 seconds =       5.03 minutes
	system time =      16.43 seconds =       0.27 minutes
	total time  =         41 seconds =       0.68 minutes

			-----------------------------------------
			 OPTKING 2.0: for geometry optimizations 
			  - R.A. King,  Bethel University        
			-----------------------------------------
	At level 1: Red. Int., RFO, no backsteps, dynamic trust

	Previous internal coordinate definitions found.
	---Fragment 1 Geometry and Gradient---
	 CU          0.0000000000        0.0000000000        2.1498024920
	 CU          0.0000000000        0.0000000000       -2.1498024920
	             0.0000000000       -0.0000000000       -0.0000662582
	             0.0000000000       -0.0000000000        0.0000662582

	---Fragment 1 Intrafragment Coordinates---
	 - Coordinate -           - BOHR/RAD -       - ANG/DEG -
	 R(1,2)           =         4.299605	       2.275253

	Current energy   :     -3281.5708921544

	Energy change for the previous step:
		Projected    :         0.0000165418
		Actual       :        -0.0000017300

	Performing BFGS update.
	Previous computed or guess Hessian on step 1.
	Steps to be used in Hessian update: 3 2
	Taking RFO optimization step.
	Going to follow RFO solution 1.
	Using RFO vector 1.
	Norm of target step-size    0.00081
	Projected energy change by RFO approximation:         0.0000002742

	Back-transformation to cartesian coordinates...
	Successfully converged to displaced geometry.

	--- Internal Coordinate Step in ANG or DEG, aJ/ANG or AJ/DEG ---
	 ---------------------------------------------------------------------------
	   Coordinate                Previous        Force       Change         New 
	   ----------                --------       ------       ------       ------
	    1 R(1,2)          =      2.275253     0.000546     0.000429     2.275682
	 ---------------------------------------------------------------------------
	Successfully symmetrized geometry.

  ==> Convergence Check <==

  Measures of convergence in internal coordinates in au.
  Criteria marked as inactive (o), active & met (*), and active & unmet ( ).
  ---------------------------------------------------------------------------------------------
   Step     Total Energy     Delta E     MAX Force     RMS Force      MAX Disp      RMS Disp   
  ---------------------------------------------------------------------------------------------
    Convergence Criteria    1.00e-06 *    3.00e-04 *             o    1.20e-03 *             o
  ---------------------------------------------------------------------------------------------
      4   -3281.57089215   -1.73e-06      6.63e-05 *    6.63e-05 o    8.10e-04 *    8.10e-04 o  ~
  ---------------------------------------------------------------------------------------------


  **** Optimization is complete! (in 4 steps) ****

  ==> Optimization Summary <==

  Measures of convergence in internal coordinates in au.
  --------------------------------------------------------------------------------------------------------------- ~
   Step         Total Energy             Delta E       MAX Force       RMS Force        MAX Disp        RMS Disp  ~
  --------------------------------------------------------------------------------------------------------------- ~
      1   -3281.570346108131  -3281.570346108131      0.00997003      0.00997003      0.05444460      0.05444460  ~
      2   -3281.570748430638     -0.000402322507      0.00493076      0.00493076      0.05312185      0.05312185  ~
      3   -3281.570890424381     -0.000141993743      0.00055437      0.00055437      0.00633297      0.00633297  ~
      4   -3281.570892154421     -0.000001730041      0.00006626      0.00006626      0.00080982      0.00080982  ~
  --------------------------------------------------------------------------------------------------------------- ~

	Writing optimization data to binary file.
	Final energy is  -3281.5708921544215
	Final (previous) structure:
	Cartesian Geometry (in Angstrom)
	   CU     0.0000000000   0.0000000000   1.1376264817
	   CU     0.0000000000   0.0000000000  -1.1376264817
	Saving final (previous) structure.
	Cleaning optimization helper files.
			--------------------------
			 OPTKING Finished Execution 
			--------------------------

    Final optimized geometry and variables:
    Molecular point group: d2h
    Full point group: D_inf_h

    Geometry (in Angstrom), charge = 0, multiplicity = 1:

    CU           0.000000000000     0.000000000000     1.137626486220
    CU           0.000000000000     0.000000000000    -1.137626486220

	Removing binary optimization data file.
	Cleaning optimization helper files.

Scratch directory: /tmp/
gradient() will perform analytic gradient computation.

*** tstart() called on compute181.bc4.acrc.priv
[...]
    MP2 Hybrid          =          FALSE

   => Exchange Functionals <=

    1.0000   XC_HYB_MGGA_X_MN15

   => Exact (HF) Exchange <=

    0.4400               HF 

   => Correlation Functionals <=

    1.0000   XC_MGGA_C_MN15

   => LibXC Density Thresholds  <==

    XC_MGGA_C_MN15:  1.00E-15 
    XC_HYB_MGGA_X_MN15:  1.00E-15 

   => Molecular Quadrature <=

    Radial Scheme          =       TREUTLER
    Pruning Scheme         =           NONE
    Nuclear Scheme         =       TREUTLER

    BS radius alpha        =              1
    Pruning alpha          =              1
    Radial Points          =             75
    Spherical Points       =            302
    Total Points           =          43516
    Total Blocks           =            430
    Max Points             =            252
    Max Functions          =            129
    Weights Tolerance      =       1.00E-15

   => Loading Basis Set <=

    Name: (DEF2-TZVPPD AUX)
    Role: JKFIT
    Keyword: DF_BASIS_SCF
    atoms 1-2 entry CU         line  2356 file /mnt/storage/home/zw18965/.conda/envs/p4env/share/psi4/basis/def2-universal-jkfit.gbs 

  ==> Integral Setup <==

  DFHelper Memory: AOs need 0.078 GiB; user supplied 83.537 GiB. Using in-core AOs.

  ==> MemDFJK: Density-Fitted J/K Matrices <==

    J tasked:                   Yes
    K tasked:                   Yes
    wK tasked:                   No
    OpenMP threads:              28
    Memory [MiB]:             85541
    Algorithm:                 Core
    Schwarz Cutoff:           1E-12
    Mask sparsity (%):       5.4355
    Fitting Condition:        1E-10

   => Auxiliary Basis Set <=

  Basis Set: (DEF2-TZVPPD AUX)
    Blend: DEF2-UNIVERSAL-JKFIT
    Number of shells: 116
    Number of basis functions: 528
    Number of Cartesian functions: 754
    Spherical Harmonics?: true
    Max angular momentum: 6

  Cached 100.0% of DFT collocation blocks in 0.282 [GiB].

  Minimum eigenvalue in the overlap matrix is 1.9327466716E-03.
  Reciprocal condition number of the overlap matrix is 4.6400967774E-04.
    Using symmetric orthogonalization.

  ==> Pre-Iterations <==

  SCF Guess: Superposition of Atomic Densities via on-the-fly atomic UHF (no occupation information).

   -------------------------
    Irrep   Nso     Nmo    
   -------------------------
     Ag        27      27 
     B1g        8       8 
     B2g       16      16 
     B3g       16      16 
     Au         8       8 
     B1u       27      27 
     B2u       16      16 
     B3u       16      16 
   -------------------------
    Total     134     134
   -------------------------

  ==> Iterations <==

                           Total Energy        Delta E     RMS |[F,P]|

   @DF-RKS iter SAD: -3276.43723913209396   -3.27644e+03   0.00000e+00 
    Occupation by irrep:
             Ag   B1g   B2g   B3g    Au   B1u   B2u   B3u 
    DOCC [     8,    1,    3,    3,    0,    7,    4,    3 ]

   @DF-RKS iter   1: -3275.59330212368923    8.43937e-01   1.19166e-01 DIIS
    Occupation by irrep:
             Ag   B1g   B2g   B3g    Au   B1u   B2u   B3u 
    DOCC [     8,    1,    3,    3,    1,    7,    3,    3 ]

   @DF-RKS iter   2: -3190.50868361782659    8.50846e+01   2.65603e-01 DIIS
   @DF-RKS iter   3: -3279.68933160068673   -8.91806e+01   5.67603e-02 DIIS
   @DF-RKS iter   4: -3279.22630506819087    4.63027e-01   6.56516e-02 DIIS
   @DF-RKS iter   5: -3281.53186865974567   -2.30556e+00   1.00211e-02 DIIS
   @DF-RKS iter   6: -3281.55968025237507   -2.78116e-02   5.02449e-03 DIIS
   @DF-RKS iter   7: -3281.56992701269382   -1.02468e-02   1.41572e-03 DIIS
   @DF-RKS iter   8: -3281.57088441153564   -9.57399e-04   1.04023e-04 DIIS
   @DF-RKS iter   9: -3281.57089063013609   -6.21860e-06   4.61225e-05 DIIS
   @DF-RKS iter  10: -3281.57089188045757   -1.25032e-06   1.13018e-05 DIIS
   @DF-RKS iter  11: -3281.57089211494622   -2.34489e-07   2.48325e-06 DIIS
   @DF-RKS iter  12: -3281.57089214679627   -3.18500e-08   9.29127e-07 DIIS
   @DF-RKS iter  13: -3281.57089214900907   -2.21280e-09   1.87474e-07 DIIS
   @DF-RKS iter  14: -3281.57089214906182   -5.27507e-11   2.35733e-08 DIIS
   @DF-RKS iter  15: -3281.57089214906500   -3.18323e-12   2.54975e-09 DIIS
  Energy and wave function converged.


  ==> Post-Iterations <==

   Electrons on quadrature grid:
      Ntotal   =   57.9999981312 ; deviation = -1.869e-06 

    Orbital Energies [Eh]
    ---------------------

    Doubly Occupied:                                                      

       1B1u -320.684642     1Ag  -320.684628     2B1u  -37.854360  
       2Ag   -37.854145     3B1u  -33.706309     3Ag   -33.706297  
       1B2g  -33.703702     1B3g  -33.703702     1B3u  -33.703693  
       1B2u  -33.703693     4Ag    -4.074860     4B1u   -4.074247  
       5Ag    -2.748483     2B2u   -2.743899     2B3u   -2.743899  
       2B3g   -2.743478     2B2g   -2.743478     5B1u   -2.743471  
       6Ag    -0.342074     3B2u   -0.331188     3B3u   -0.331188  
       7Ag    -0.316377     1B1g   -0.316374     6B1u   -0.309099  
       1Au    -0.309096     3B3g   -0.298328     3B2g   -0.298328  
       7B1u   -0.294086     8Ag    -0.235387  

    Virtual:                                                              

       8B1u   -0.063270     4B3u   -0.006923     4B2u   -0.006923  
       9Ag     0.034294     4B2g    0.073444     4B3g    0.073444  
       9B1u    0.084886    10Ag     0.140352    11Ag     0.158979  
       5B3u    0.160004     5B2u    0.160004    12Ag     0.195613  
       2B1g    0.195616     5B3g    0.203641     5B2g    0.203641  
      10B1u    0.226701    11B1u    0.262761     6B2u    0.265411  
       6B3u    0.265411    12B1u    0.281821     2Au     0.281823  
      13Ag     0.370359     6B2g    0.384379     6B3g    0.384379  
      13B1u    0.549366    14Ag     0.677109     7B3u    0.699349  
       7B2u    0.699349     7B2g    0.779513     7B3g    0.779513  
      14B1u    0.833838     8B2u    0.879308     8B3u    0.879308  
       3B1g    0.917197    15Ag     0.917234     3Au     0.990283  
      15B1u    0.990319    16Ag     1.012243     8B2g    1.123254  
       8B3g    1.123254    16B1u    1.323116     9B2u    2.974703  
       9B3u    2.974703    17Ag     3.019998    17B1u    3.046218  
       9B3g    3.058649     9B2g    3.058649    18Ag     3.088073  
      10B3u    3.396441    10B2u    3.396441     4B1g    3.420434  
      19Ag     3.420472    20Ag     3.427768    11B3u    3.430419  
      11B2u    3.430419     4Au     3.430506    18B1u    3.430551  
      10B2g    3.430768    10B3g    3.430768    11B2g    3.434826  
      11B3g    3.434826    19B1u    3.448618    20B1u    3.539392  
       5B1g    3.615591    21Ag     3.615607     5Au     3.658838  
      21B1u    3.658851    12B2u    3.670875    12B3u    3.670875  
      12B2g    3.756247    12B3g    3.756247    22Ag     3.916993  
      22B1u    4.060857    23Ag    12.718552    13B2u   12.718665  
      13B3u   12.718665    13B3g   12.719073    13B2g   12.719073  
       6B1g   12.719445    24Ag    12.719451     6Au    12.719465  
      23B1u   12.719471    24B1u   12.720256    14B3u   12.720824  
      14B2u   12.720824    14B2g   12.720824    14B3g   12.720824  
      25B1u   12.722110    25Ag    12.722111     7Au    12.722260  
       7B1g   12.722260    26Ag    12.877531    15B2u   12.877777  
      15B3u   12.877777     8B1g   12.879113    27Ag    12.879246  
      16B3u   12.879983    16B2u   12.879983    15B3g   12.880076  
      15B2g   12.880076     8Au    12.881304    26B1u   12.881437  
      16B3g   12.898142    16B2g   12.898142    27B1u   12.992584  

    Final Occupation by Irrep:
             Ag   B1g   B2g   B3g    Au   B1u   B2u   B3u 
    DOCC [     8,    1,    3,    3,    1,    7,    3,    3 ]

  @DF-RKS Final Energy: -3281.57089214906500

   => Energetics <=

    Nuclear Repulsion Energy =            195.5588218102909934
    One-Electron Energy =               -4966.1375054000236560
    Two-Electron Energy =                1566.2067889879585891
    DFT Exchange-Correlation Energy =     -77.1989659572909090
    Empirical Dispersion Energy =          -0.0000315900000000
    VV10 Nonlocal Energy =                  0.0000000000000000
    Total Energy =                      -3281.5708921490650027

Computation Completed


Properties will be evaluated at   0.000000,   0.000000,   0.000000 [a0]

Properties computed using the SCF density matrix

  Nuclear Dipole Moment: [e a0]
     X:     0.0000      Y:     0.0000      Z:     0.0000

  Electronic Dipole Moment: [e a0]
     X:     0.0000      Y:     0.0000      Z:     0.0000

  Dipole Moment: [e a0]
     X:     0.0000      Y:     0.0000      Z:     0.0000     Total:     0.0000

  Dipole Moment: [D]
     X:     0.0000      Y:     0.0000      Z:     0.0000     Total:     0.0000


*** tstop() called on compute181.bc4.acrc.priv at Tue Nov  2 10:31:20 2021
Module time:
	user time   =      41.60 seconds =       0.69 minutes
	system time =       1.26 seconds =       0.02 minutes
	total time  =          2 seconds =       0.03 minutes
Total time:
	user time   =     599.87 seconds =      10.00 minutes
	system time =      26.77 seconds =       0.45 minutes
	total time  =         73 seconds =       1.22 minutes

*** tstart() called on compute181.bc4.acrc.priv
*** at Tue Nov  2 10:31:20 2021


         ------------------------------------------------------------
                                   SCF GRAD                          
                          Rob Parrish, Justin Turney,                
                       Andy Simmonett, and Alex Sokolov              
         ------------------------------------------------------------

  ==> Geometry <==

    Molecular point group: d2h
    Full point group: D_inf_h

    Geometry (in Angstrom), charge = 0, multiplicity = 1:

       Center              X                  Y                   Z               Mass       
    ------------   -----------------  -----------------  -----------------  -----------------
         CU           0.000000000000     0.000000000000     1.137862332299    62.929597720000
         CU           0.000000000000     0.000000000000    -1.137862332299    62.929597720000

  Nuclear repulsion =  195.558821810290993

  ==> Basis Set <==

  Basis Set: DEF2-TZVPPD
    Blend: DEF2-TZVPPD
    Number of shells: 38
    Number of basis functions: 134
    Number of Cartesian functions: 166
    Spherical Harmonics?: true
    Max angular momentum: 4

  ==> DFJKGrad: Density-Fitted SCF Gradients <==

    Gradient:                    1
    J tasked:                  Yes
    K tasked:                  Yes
    wK tasked:                  No
    OpenMP threads:             28
    Integrals threads:          28
    Memory [MiB]:            85830
    Schwarz Cutoff:          1E-12
    Fitting Condition:       1E-10

   => Auxiliary Basis Set <=

  Basis Set: (DEF2-TZVPPD AUX)
    Blend: DEF2-UNIVERSAL-JKFIT
    Number of shells: 116
    Number of basis functions: 528
    Number of Cartesian functions: 754
    Spherical Harmonics?: true
    Max angular momentum: 6

  ==> DFT Potential <==

   => Composite Functional: MN15-D3BJ <= 

   MN15 Hybrid Meta-GGA Exchange-Correlation Functional

    H. S. Yu, X. He, S. L. Li, and D. G. Truhlar, Chem. Sci. 7, 5032-5051, 2016


    Deriv               =              1
    GGA                 =           TRUE
    Meta                =           TRUE

    Exchange Hybrid     =           TRUE
    MP2 Hybrid          =          FALSE

   => Exchange Functionals <=

    1.0000   XC_HYB_MGGA_X_MN15

   => Exact (HF) Exchange <=

    0.4400               HF 

   => Correlation Functionals <=

    1.0000   XC_MGGA_C_MN15

   => LibXC Density Thresholds  <==

    XC_MGGA_C_MN15:  1.00E-15 
    XC_HYB_MGGA_X_MN15:  1.00E-15 

   => Molecular Quadrature <=

    Radial Scheme          =       TREUTLER
    Pruning Scheme         =           NONE
    Nuclear Scheme         =       TREUTLER

    BS radius alpha        =              1
    Pruning alpha          =              1
    Radial Points          =             75
    Spherical Points       =            302
    Total Points           =          43516
    Total Blocks           =            430
    Max Points             =            252
    Max Functions          =            129
    Weights Tolerance      =       1.00E-15


  -Total Gradient:
     Atom            X                  Y                   Z
    ------   -----------------  -----------------  -----------------
       1        0.000000000000     0.000000000000     0.000001881293
       2        0.000000000000     0.000000000000    -0.000001881293


*** tstop() called on compute181.bc4.acrc.priv at Tue Nov  2 10:31:27 2021
Module time:
	user time   =      39.27 seconds =       0.65 minutes
	system time =       1.39 seconds =       0.02 minutes
	total time  =          7 seconds =       0.12 minutes
Total time:
	user time   =     642.71 seconds =      10.71 minutes
	system time =      28.33 seconds =       0.47 minutes
	total time  =         80 seconds =       1.33 minutes

         ----------------------------------------------------------
                                   FINDIF
                     R. A. King and Jonathon Misiewicz
         ---------------------------------------------------------

  Computing second-derivative from gradients using projected, 
  symmetry-adapted, cartesian coordinates.

  3 gradients passed in, including the reference geometry.
  Generating complete list of displacements from unique ones.


-------------------------------------------------------------


  ==> Harmonic Vibrational Analysis <==

  non-mass-weighted Hessian:       Symmetric? True   Hermitian? True   Lin Dep Dim?  5 (0)
  projection of translations (True) and rotations (True) removed 5 degrees of freedom (5)
  total projector:                 Symmetric? True   Hermitian? True   Lin Dep Dim?  5 (5)
  mass-weighted Hessian:           Symmetric? True   Hermitian? True   Lin Dep Dim?  5 (0)
  pre-proj  low-frequency mode:    0.0000  [cm^-1]
  pre-proj  low-frequency mode:    0.0000  [cm^-1]
  pre-proj  low-frequency mode:    0.0000  [cm^-1]
  pre-proj  low-frequency mode:    0.0000  [cm^-1]
  pre-proj  low-frequency mode:    0.0000  [cm^-1]
  pre-proj  all modes:['0.0000' '0.0000' '0.0000' '0.0000' '0.0000' '253.4913']
  projected mass-weighted Hessian: Symmetric? True   Hermitian? True   Lin Dep Dim?  5 (5)
  post-proj low-frequency mode:    0.0000  [cm^-1] (TR)
  post-proj low-frequency mode:    0.0000  [cm^-1] (TR)
  post-proj low-frequency mode:    0.0000  [cm^-1] (TR)
  post-proj low-frequency mode:    0.0000  [cm^-1] (TR)
  post-proj low-frequency mode:    0.0000  [cm^-1] (TR)
  post-proj  all modes:['0.0000' '0.0000' '0.0000' '0.0000' '0.0000' '253.4913']

  Vibration                       6           
  Freq [cm^-1]                 253.4913       
  Irrep                           Ag          
  Reduced mass [u]             62.9296        
  Force const [mDyne/A]         2.3825        
  Turning point v=0 [a0]        0.0869        
  RMS dev v=0 [a0 u^1/2]        0.4873        
  Char temp [K]                364.7175       
  ----------------------------------------------------------------------------------
      1   CU               0.00  0.00  0.71   
      2   CU               0.00  0.00 -0.71   

  ==> Thermochemistry Components <==

  Entropy, S
    Electronic S            0.000 [cal/(mol K)]        0.000 [J/(mol K)]       0.00000000 [mEh/K] (multiplicity = 1)
    Translational S        40.404 [cal/(mol K)]      169.048 [J/(mol K)]       0.06438717 [mEh/K] (mol. weight = 125.8592 [u], P = 101325.00 [Pa])
    Rotational S           15.717 [cal/(mol K)]       65.758 [J/(mol K)]       0.02504600 [mEh/K] (symmetry no. = 2)
    Vibrational S           1.706 [cal/(mol K)]        7.139 [J/(mol K)]       0.00271896 [mEh/K]
  Total S                  57.826 [cal/(mol K)]      241.945 [J/(mol K)]       0.09215213 [mEh/K]
  Correction S              0.000 [cal/(mol K)]        0.000 [J/(mol K)]       0.00000000 [mEh/K]

  Constant volume heat capacity, Cv
    Electronic Cv           0.000 [cal/(mol K)]        0.000 [J/(mol K)]       0.00000000 [mEh/K]
    Translational Cv        2.981 [cal/(mol K)]       12.472 [J/(mol K)]       0.00475022 [mEh/K]
    Rotational Cv           1.987 [cal/(mol K)]        8.314 [J/(mol K)]       0.00316681 [mEh/K]
    Vibrational Cv          1.757 [cal/(mol K)]        7.351 [J/(mol K)]       0.00279979 [mEh/K]
  Total Cv                  6.725 [cal/(mol K)]       28.137 [J/(mol K)]       0.01071682 [mEh/K]
  Correction Cv             0.000 [cal/(mol K)]        0.000 [J/(mol K)]       0.00000000 [mEh/K]

  Constant pressure heat capacity, Cp
    Electronic Cp           0.000 [cal/(mol K)]        0.000 [J/(mol K)]       0.00000000 [mEh/K]
    Translational Cp        4.968 [cal/(mol K)]       20.786 [J/(mol K)]       0.00791703 [mEh/K]
    Rotational Cp           1.987 [cal/(mol K)]        8.314 [J/(mol K)]       0.00316681 [mEh/K]
    Vibrational Cp          1.757 [cal/(mol K)]        7.351 [J/(mol K)]       0.00279979 [mEh/K]
  Total Cp                  8.712 [cal/(mol K)]       36.451 [J/(mol K)]       0.01388363 [mEh/K]
  Correction Cp             0.000 [cal/(mol K)]        0.000 [J/(mol K)]       0.00000000 [mEh/K]

  ==> Thermochemistry Energy Analysis <==

  Raw electronic energy, E0
  Total E0, Electronic energy at well bottom at 0 [K]                -3281.57089215 [Eh]

  Zero-point energy, ZPE_vib = Sum_i nu_i / 2
    Electronic ZPE          0.000 [kcal/mol]        0.000 [kJ/mol]       0.00000000 [Eh]
    Translational ZPE       0.000 [kcal/mol]        0.000 [kJ/mol]       0.00000000 [Eh]
    Rotational ZPE          0.000 [kcal/mol]        0.000 [kJ/mol]       0.00000000 [Eh]
    Vibrational ZPE         0.362 [kcal/mol]        1.516 [kJ/mol]       0.00057750 [Eh]         126.746 [cm^-1]
  Correction ZPE            0.362 [kcal/mol]        1.516 [kJ/mol]       0.00057750 [Eh]         126.746 [cm^-1]
  Total ZPE, Electronic energy at 0 [K]                              -3281.57031466 [Eh]

  Thermal Energy, E (includes ZPE)
    Electronic E            0.000 [kcal/mol]        0.000 [kJ/mol]       0.00000000 [Eh]
    Translational E         0.889 [kcal/mol]        3.718 [kJ/mol]       0.00141628 [Eh]
    Rotational E            0.592 [kcal/mol]        2.479 [kJ/mol]       0.00094418 [Eh]
    Vibrational E           0.665 [kcal/mol]        2.781 [kJ/mol]       0.00105909 [Eh]
  Correction E              2.146 [kcal/mol]        8.978 [kJ/mol]       0.00341955 [Eh]
  Total E, Electronic energy at  298.15 [K]                          -3281.56747261 [Eh]

  Enthalpy, H_trans = E_trans + k_B * T
    Electronic H            0.000 [kcal/mol]        0.000 [kJ/mol]       0.00000000 [Eh]
    Translational H         1.481 [kcal/mol]        6.197 [kJ/mol]       0.00236046 [Eh]
    Rotational H            0.592 [kcal/mol]        2.479 [kJ/mol]       0.00094418 [Eh]
    Vibrational H           0.665 [kcal/mol]        2.781 [kJ/mol]       0.00105909 [Eh]
  Correction H              2.738 [kcal/mol]       11.457 [kJ/mol]       0.00436373 [Eh]
  Total H, Enthalpy at  298.15 [K]                                   -3281.56652842 [Eh]

  Gibbs free energy, G = H - T * S
    Electronic G            0.000 [kcal/mol]        0.000 [kJ/mol]       0.00000000 [Eh]
    Translational G       -10.565 [kcal/mol]      -44.204 [kJ/mol]      -0.01683657 [Eh]
    Rotational G           -4.093 [kcal/mol]      -17.127 [kJ/mol]      -0.00652328 [Eh]
    Vibrational G           0.156 [kcal/mol]        0.652 [kJ/mol]       0.00024843 [Eh]
  Correction G            -14.503 [kcal/mol]      -60.679 [kJ/mol]      -0.02311142 [Eh]
  Total G, Free enthalpy at  298.15 [K]                              -3281.59400358 [Eh]

    Psi4 stopped on: Tuesday, 02 November 2021 10:31AM
    Psi4 wall time for execution: 0:01:20.55

*** Psi4 exiting successfully. Buy a developer a beer!
