Optimizer: Optimization complete!
 3 displacements needed.
 1 2 3
Warning: used thermodynamics relations inappropriate for low-frequency modes: ['253.8040']
At level 1: Red. Int., RFO, no backsteps, dynamic trust
At level 1: Red. Int., RFO, no backsteps, dynamic trust
At level 1: Red. Int., RFO, no backsteps, dynamic trust
At level 1: Red. Int., RFO, no backsteps, dynamic trust
ov,
    R. Di Remigio, R. M. Richard, J. F. Gonthier, A. M. James,
    H. R. McAlexander, A. Kumar, M. Saitow, X. Wang, B. P. Pritchard,
    P. Verma, H. F. Schaefer III, K. Patkowski, R. A. King, E. F. Valeev,
    F. A. Evangelista, J. M. Turney, T. D. Crawford, and C. D. Sherrill,
    J. Chem. Theory Comput. 13(7) pp 3185--3197 (2017).
    (doi: 10.1021/acs.jctc.7b00174)


                         Additional Contributions by
    P. Kraus, H. Kruse, M. H. Lechner, M. C. Schieber, R. A. Shaw,
    A. Alenaizan, R. Galvelis, Z. L. Glick, S. Lehtola, and J. P. Misiewicz

    -----------------------------------------------------------------------


    Psi4 started on: Friday, 29 October 2021 08:43AM

    Process ID: 252688
    Host:       bp1-compute00070.data.bp.acrc.priv
    PSIDATADIR: /work/zw18965/.conda/envs/p4env/share/psi4
    Memory:     500.0 MiB
    Threads:    24
    
  ==> Input File <==

--------------------------------------------------------------------------
memory 144 GB

molecule {
0 1
Cu       0.000000    0.000000    1.107490 
Cu       0.000000    0.000000   -1.107490 
 }

set dynamic_level 1
set basis Def2-TZVPPD

optimize("MN15-D3BJ")
frequencies("MN15-D3BJ")
--------------------------------------------------------------------------

  Memory set to 134.110 GiB by Python driver.
gradient() will perform analytic gradient computation.

*** tstart() called on bp1-compute00070.data.bp.acrc.priv
*** at Fri Oct 29 08:43:42 2021

   => Loading Basis Set <=

    Name: DEF2-TZVPPD
    Role: ORBITAL
    Keyword: BASIS
    atoms 1-2 entry CU         line  1290 file /work/zw18965/.conda/envs/p4env/share/psi4/basis/def2-tzvppd.gbs 


         ---------------------------------------------------------
                                   SCF
               by Justin Turney, Rob Parrish, Andy Simmonett
                          and Daniel G. A. Smith
                              RKS Reference
                       24 Threads, 137329 MiB Core
         ---------------------------------------------------------

  ==> Geometry <==

    Molecular point group: d2h
    Full point group: D_inf_h

    Geometry (in Angstrom), charge = 0, multiplicity = 1:

       Center              X                  Y                   Z               Mass       
    ------------   -----------------  -----------------  -----------------  -----------------
         CU           0.000000000000     0.000000000000     1.107490000000    62.929597720000
         CU           0.000000000000     0.000000000000    -1.107490000000    62.929597720000

  Running in d2h symmetry.

  Rotational constants: A = ************  B =      0.10920  C =      0.10920 [cm^-1]
  Rotational constants: A = ************  B =   3273.80359  C =   3273.80359 [MHz]
  Nuclear repulsion =  200.921919915064706

  Charge       = 0
  Multiplicity = 1
  Electrons    = 58
  Nalpha       = 29
  Nbeta        = 29

  ==> Algorithm <==

  SCF Algorithm Type is DF.
  DIIS enabled.
  MOM disabled.
  Fractional occupation disabled.
  Guess Type is SAD.
  Energy threshold   = 1.00e-08
  Density threshold  = 1.00e-08
  Integral threshold = 0.00e+00

  ==> Primary Basis <==

  Basis Set: DEF2-TZVPPD
    Blend: DEF2-TZVPPD
    Number of shells: 38
    Number of basis function: 134
    Number of Cartesian functions: 166
    Spherical Harmonics?: true
    Max angular momentum: 4

  ==> DFT Potential <==

   => Composite Functional: MN15-D3BJ <= 

   MN15 Hybrid Meta-GGA Exchange-Correlation Functional

    H. S. Yu, X. He, S. L. Li, and D. G. Truhlar, Chem. Sci. 7, 5032-5051, 2016


    Deriv               =              1
    GGA                 =           TRUE
    Meta                =           TRUE

    Exchange Hybrid     =           TRUE
    MP2 Hybrid          =          FALSE

   => Exchange Functionals <=

    1.0000   XC_HYB_MGGA_X_MN15

   => Exact (HF) Exchange <=

    0.4400               HF 

   => Correlation Functionals <=

    1.0000   XC_MGGA_C_MN15

   => Molecular Quadrature <=

    Radial Scheme          =       TREUTLER
    Pruning Scheme         =           FLAT
    Nuclear Scheme         =       TREUTLER

    BS radius alpha        =              1
    Pruning alpha          =              1
    Radial Points          =             75
    Spherical Points       =            302
    Total Points           =          45300
    Total Blocks           =            426
    Max Points             =            256
    Max Functions          =            129

   => MN15-D3(BJ): Empirical Dispersion <=

    Grimme's -D3 (BJ-damping) Dispersion Correction
    Grimme S.; Ehrlich S.; Goerigk L. (2011), J. Comput. Chem., 32: 1456
    Parametrisation from:    L. Goerigk, A. Hansen, C. Bauer, S. Ehrlich, A. Najibi, S. Grimme, Phys. Chem. Chem. Phys. 19, 32184-32215, 2017

        s6 =       1.000000
        s8 =       2.097100
        a1 =       0.786200
        a2 =       7.592300

   => Loading Basis Set <=

    Name: (DEF2-TZVPPD AUX)
    Role: JKFIT
    Keyword: DF_BASIS_SCF
    atoms 1-2 entry CU         line  2361 file /work/zw18965/.conda/envs/p4env/share/psi4/basis/def2-tzvpp-jkfit.gbs 

  ==> Pre-Iterations <==

   -------------------------------------------------------
    Irrep   Nso     Nmo     Nalpha   Nbeta   Ndocc  Nsocc
   -------------------------------------------------------
     Ag        27      27       0       0       0       0
     B1g        8       8       0       0       0       0
     B2g       16      16       0       0       0       0
     B3g       16      16       0       0       0       0
     Au         8       8       0       0       0       0
     B1u       27      27       0       0       0       0
     B2u       16      16       0       0       0       0
     B3u       16      16       0       0       0       0
   -------------------------------------------------------
    Total     134     134      29      29      29       0
   -------------------------------------------------------

  ==> Integral Setup <==

  DFHelper Memory: AOs need 0.078 GiB; user supplied 100.269 GiB. Using in-core AOs.

  ==> MemDFJK: Density-Fitted J/K Matrices <==

    J tasked:                   Yes
    K tasked:                   Yes
    wK tasked:                   No
    OpenMP threads:              24
    Memory [MiB]:            102675
    Algorithm:                 Core
    Schwarz Cutoff:           1E-12
    Mask sparsity (%):       4.8340
    Fitting Condition:        1E-10

   => Auxiliary Basis Set <=

  Basis Set: (DEF2-TZVPPD AUX)
    Blend: DEF2-TZVPP-JKFIT
    Number of shells: 116
    Number of basis function: 528
    Number of Cartesian functions: 754
    Spherical Harmonics?: true
    Max angular momentum: 6

  Cached 100.0% of DFT collocation blocks in 0.314 [GiB].

  Minimum eigenvalue in the overlap matrix is 7.7263331766E-04.
  Using Symmetric Orthogonalization.

  SCF Guess: Superposition of Atomic Densities via on-the-fly atomic UHF.

  ==> Iterations <==

                           Total Energy        Delta E     RMS |[F,P]|

   @DF-RKS iter SAD: -3276.51006371050789   -3.27651e+03   0.00000e+00 
    Occupation by irrep:
             Ag   B1g   B2g   B3g    Au   B1u   B2u   B3u 
    DOCC [     8,    1,    3,    3,    0,    7,    4,    3 ]

   @DF-RKS iter   1: -3275.58044627375011    9.29617e-01   1.19143e-01 DIIS
    Occupation by irrep:
             Ag   B1g   B2g   B3g    Au   B1u   B2u   B3u 
    DOCC [     8,    1,    3,    3,    1,    7,    3,    3 ]

   @DF-RKS iter   2: -3189.73747134512814    8.58430e+01   2.66144e-01 DIIS
   @DF-RKS iter   3: -3279.69610143968112   -8.99586e+01   5.63729e-02 DIIS
   @DF-RKS iter   4: -3279.03469455634786    6.61407e-01   6.74853e-02 DIIS
   @DF-RKS iter   5: -3281.53449567834105   -2.49980e+00   9.75353e-03 DIIS
   @DF-RKS iter   6: -3281.55942323964291   -2.49276e-02   5.13716e-03 DIIS
   @DF-RKS iter   7: -3281.56989727337668   -1.04740e-02   1.55271e-03 DIIS
   @DF-RKS iter   8: -3281.57103559076904   -1.13832e-03   1.27007e-04 DIIS
   @DF-RKS iter   9: -3281.57104408010855   -8.48934e-06   4.36427e-05 DIIS
   @DF-RKS iter  10: -3281.57104513360991   -1.05350e-06   8.48811e-06 DIIS
   @DF-RKS iter  11: -3281.57104526192961   -1.28320e-07   2.01193e-06 DIIS
   @DF-RKS iter  12: -3281.57104528280706   -2.08775e-08   9.40030e-07 DIIS
   @DF-RKS iter  13: -3281.57104528504715   -2.24009e-09   2.08467e-07 DIIS
   @DF-RKS iter  14: -3281.57104528510990   -6.27551e-11   2.83201e-08 DIIS
   @DF-RKS iter  15: -3281.57104528511263   -2.72848e-12   2.49034e-09 DIIS
  Energy and wave function converged.


  ==> Post-Iterations <==

    Orbital Energies [Eh]
    ---------------------

    Doubly Occupied:                                                      

       1B1u -320.685488     1Ag  -320.685474     2B1u  -37.855349  
       2Ag   -37.855133     3B1u  -33.707288     3Ag   -33.707279  
       1B2g  -33.704542     1B3g  -33.704542     1B3u  -33.704533  
       1B2u  -33.704533     4Ag    -4.075901     4B1u   -4.075025  
       5Ag    -2.750523     2B2u   -2.744613     2B3u   -2.744613  
       2B3g   -2.744047     2B2g   -2.744047     5B1u   -2.744038  
       6Ag    -0.346629     3B2u   -0.334567     3B3u   -0.334567  
       7Ag    -0.317474     1B1g   -0.317470     6B1u   -0.309090  
       1Au    -0.309085     3B3g   -0.297192     3B2g   -0.297192  
       7B1u   -0.292703     8Ag    -0.236977  

    Virtual:                                                              

       8B1u   -0.061431     4B3u   -0.007257     4B2u   -0.007257  
       9Ag     0.035920     4B3g    0.075105     4B2g    0.075105  
       9B1u    0.084690    10Ag     0.140676    11Ag     0.159444  
       5B3u    0.159487     5B2u    0.159487    12Ag     0.195978  
       2B1g    0.195980     5B3g    0.204842     5B2g    0.204842  
      10B1u    0.228307    11B1u    0.266086     6B2u    0.268011  
       6B3u    0.268011    12B1u    0.283509     2Au     0.283511  
      13Ag     0.371416     6B2g    0.387563     6B3g    0.387563  
      13B1u    0.560887    14Ag     0.680551     7B3u    0.693835  
       7B2u    0.693835     7B2g    0.783509     7B3g    0.783509  
      14B1u    0.837592     8B2u    0.883786     8B3u    0.883786  
       3B1g    0.913162    15Ag     0.913182     3Au     0.993687  
      15B1u    0.993710    16Ag     1.022359     8B2g    1.132156  
       8B3g    1.132156    16B1u    1.342146     9B2u    2.975641  
       9B3u    2.975641    17Ag     3.021609    17B1u    3.029209  
       9B3g    3.059358     9B2g    3.059358    18Ag     3.120757  
      10B3u    3.390954    10B2u    3.390954    19Ag     3.407796  
       4B1g    3.416821    20Ag     3.416842    11B3u    3.430056  
      11B2u    3.430056    10B2g    3.430639    10B3g    3.430639  
       4Au     3.431062    18B1u    3.431081    11B2g    3.441519  
      11B3g    3.441519    19B1u    3.465616    20B1u    3.567687  
      21Ag     3.615831     5B1g    3.615862    21B1u    3.659943  
       5Au     3.659967    12B2u    3.681353    12B3u    3.681353  
      12B2g    3.761367    12B3g    3.761367    22Ag     3.941736  
      22B1u    4.076698    23Ag    12.717274    13B2u   12.717660  
      13B3u   12.717660    13B3g   12.718242    13B2g   12.718242  
      24Ag    12.718496    23B1u   12.718527     6B1g   12.718560  
       6Au    12.718591    24B1u   12.719145    14B3u   12.720123  
      14B2u   12.720123    14B2g   12.720124    14B3g   12.720124  
      25B1u   12.721703    25Ag    12.721704     7Au    12.721878  
       7B1g   12.721879    26Ag    12.868385    15B2u   12.874146  
      15B3u   12.874146     8B1g   12.877614    27Ag    12.877734  
      16B3u   12.879334    16B2u   12.879334    15B2g   12.879501  
      15B3g   12.879501     8Au    12.881113    26B1u   12.881232  
      16B3g   12.904573    16B2g   12.904573    27B1u   13.021002  

    Final Occupation by Irrep:
             Ag   B1g   B2g   B3g    Au   B1u   B2u   B3u 
    DOCC [     8,    1,    3,    3,    1,    7,    3,    3 ]

  @DF-RKS Final Energy: -3281.57104528511263

   => Energetics <=

    Nuclear Repulsion Energy =            200.9219199150647057
    One-Electron Energy =               -4976.8038920565040826
    Two-Electron Energy =                1571.5150286587793289
    DFT Exchange-Correlation Energy =     -77.2040702924527267
    Empirical Dispersion Energy =          -0.0000315100000000
    VV10 Nonlocal Energy =                  0.0000000000000000
    Total Energy =                      -3281.5710452851126320

Computation Completed


Properties will be evaluated at   0.000000,   0.000000,   0.000000 [a0]

Properties computed using the SCF density matrix

  Nuclear Dipole Moment: [e a0]
     X:     0.0000      Y:     0.0000      Z:    -0.0000

  Electronic Dipole Moment: [e a0]
     X:     0.0000      Y:     0.0000      Z:     0.0000

  Dipole Moment: [e a0]
     X:     0.0000      Y:     0.0000      Z:    -0.0000     Total:     0.0000

  Dipole Moment: [D]
     X:     0.0000      Y:     0.0000      Z:    -0.0000     Total:     0.0000


*** tstop() called on bp1-compute00070.data.bp.acrc.priv at Fri Oct 29 08:43:44 2021
Module time:
	user time   =      41.90 seconds =       0.70 minutes
	system time =       2.46 seconds =       0.04 minutes
	total time  =          2 seconds =       0.03 minutes
Total time:
	user time   =      41.90 seconds =       0.70 minutes
	system time =       2.46 seconds =       0.04 minutes
	total time  =          2 seconds =       0.03 minutes

*** tstart() called on bp1-compute00070.data.bp.acrc.priv
*** at Fri Oct 29 08:43:44 2021


         ------------------------------------------------------------
                                   SCF GRAD                          
                          Rob Parrish, Justin Turney,                
                       Andy Simmonett, and Alex Sokolov              
         ------------------------------------------------------------

  ==> Geometry <==

    Molecular point group: d2h
    Full point group: D_inf_h

    Geometry (in Angstrom), charge = 0, multiplicity = 1:

       Center              X                  Y                   Z               Mass       
    ------------   -----------------  -----------------  -----------------  -----------------
         CU           0.000000000000     0.000000000000     1.107490000000    62.929597720000
         CU           0.000000000000     0.000000000000    -1.107490000000    62.929597720000

  Nuclear repulsion =  200.921919915064706

  ==> Basis Set <==

  Basis Set: DEF2-TZVPPD
    Blend: DEF2-TZVPPD
    Number of shells: 38
    Number of basis function: 134
    Number of Cartesian functions: 166
    Spherical Harmonics?: true
    Max angular momentum: 4

  ==> DFJKGrad: Density-Fitted SCF Gradients <==

    Gradient:                    1
    J tasked:                  Yes
    K tasked:                  Yes
    wK tasked:                  No
    OpenMP threads:             24
    Integrals threads:          24
    Memory [MiB]:           102996
    Schwarz Cutoff:          0E+00
    Fitting Condition:       1E-10

   => Auxiliary Basis Set <=

  Basis Set: (DEF2-TZVPPD AUX)
    Blend: DEF2-TZVPP-JKFIT
    Number of shells: 116
    Number of basis function: 528
    Number of Cartesian functions: 754
    Spherical Harmonics?: true
    Max angular momentum: 6

  ==> DFT Potential <==

   => Composite Functional: MN15-D3BJ <= 

   MN15 Hybrid Meta-GGA Exchange-Correlation Functional

    H. S. Yu, X. He, S. L. Li, and D. G. Truhlar, Chem. Sci. 7, 5032-5051, 2016


    Deriv               =              1
    GGA                 =           TRUE
    Meta                =           TRUE

    Exchange Hybrid     =           TRUE
    MP2 Hybrid          =          FALSE

   => Exchange Functionals <=

    1.0000   XC_HYB_MGGA_X_MN15

   => Exact (HF) Exchange <=

    0.4400               HF 

   => Correlation Functionals <=

    1.0000   XC_MGGA_C_MN15

   => Molecular Quadrature <=

    Radial Scheme          =       TREUTLER
    Pruning Scheme         =           FLAT
    Nuclear Scheme         =       TREUTLER

    BS radius alpha        =              1
    Pruning alpha          =              1
    Radial Points          =             75
    Spherical Points       =            302
    Total Points           =          45300
    Total Blocks           =            426
    Max Points             =            256
    Max Functions          =            129


  -Total Gradient:
     Atom            X                  Y                   Z
    ------   -----------------  -----------------  -----------------
       1        0.000000000000     0.000000000000    -0.009920273878
       2        0.000000000000    -0.000000000000     0.009920273878


*** tstop() called on bp1-compute00070.data.bp.acrc.priv at Fri Oct 29 08:43:50 2021
Module time:
	user time   =      38.21 seconds =       0.64 minutes
	system time =       9.18 seconds =       0.15 minutes
	total time  =          6 seconds =       0.10 minutes
Total time:
	user time   =      81.12 seconds =       1.35 minutes
	system time =      11.71 seconds =       0.20 minutes
	total time  =          8 seconds =       0.13 minutes

			-----------------------------------------
			 OPTKING 2.0: for geometry optimizations 
			  - R.A. King,  Bethel University        
			-----------------------------------------
	At level 1: Red. Int., RFO, no backsteps, dynamic trust

	Internal coordinates to be generated automatically.
	Detected frag 1 with atoms:  1 2
	---Fragment 1 Bond Connectivity---
	 1 : 2
	 2 : 1

	---Fragment 1 Geometry and Gradient---
	 CU          0.0000000000        0.0000000000        2.0928527867
	 CU          0.0000000000        0.0000000000       -2.0928527867
	             0.0000000000        0.0000000000       -0.0099202739
	             0.0000000000       -0.0000000000        0.0099202739

	Previous optimization step data not found.  Starting new optimization.

	---Fragment 1 Intrafragment Coordinates---
	 - Coordinate -           - BOHR/RAD -       - ANG/DEG -
	 R(1,2)           =         4.185706	       2.214980

	Current energy   :     -3281.5710452851

	Generating empirical Hessian (Schlegel '84) for each fragment.
	Taking RFO optimization step.
	Going to follow RFO solution 1.
	Using RFO vector 1.
	Norm of target step-size    0.05417
	Projected energy change by RFO approximation:         0.0009272904

	Back-transformation to cartesian coordinates...
	Successfully converged to displaced geometry.

	--- Internal Coordinate Step in ANG or DEG, aJ/ANG or AJ/DEG ---
	 ---------------------------------------------------------------------------
	   Coordinate                Previous        Force       Change         New 
	   ----------                --------       ------       ------       ------
	    1 R(1,2)          =      2.214980     0.081730     0.028668     2.243648
	 ---------------------------------------------------------------------------
	Successfully symmetrized geometry.

  ==> Convergence Check <==

  Measures of convergence in internal coordinates in au.
  Criteria marked as inactive (o), active & met (*), and active & unmet ( ).
  --------------------------------------------------------------------------------------------- ~
   Step     Total Energy     Delta E     MAX Force     RMS Force      MAX Disp      RMS Disp    ~
  --------------------------------------------------------------------------------------------- ~
    Convergence Criteria    1.00e-06 *    3.00e-04 *             o    1.20e-03 *             o  ~
  --------------------------------------------------------------------------------------------- ~
      1   -3281.57104529   -3.28e+03      9.92e-03      9.92e-03 o    5.42e-02      5.42e-02 o  ~
  ---------------------------------------------------------------------------------------------

	Writing optimization data to binary file.
	Structure for next step:
	Cartesian Geometry (in Angstrom)
	   CU     0.0000000000   0.0000000000   1.1218239484
	   CU     0.0000000000   0.0000000000  -1.1218239484
			--------------------------
			 OPTKING Finished Execution 
			--------------------------

    Structure for next step:
    Molecular point group: d2h
    Full point group: D_inf_h

    Geometry (in Angstrom), charge = 0, multiplicity = 1:

    CU           0.000000000000     0.000000000000     1.121823952823
    CU           0.000000000000     0.000000000000    -1.121823952823

gradient() will perform analytic gradient computation.

*** tstart() called on bp1-compute00070.data.bp.acrc.priv
*** at Fri Oct 29 08:43:50 2021

   => Loading Basis Set <=

    Name: DEF2-TZVPPD
    Role: ORBITAL
    Keyword: BASIS
    atoms 1-2 entry CU         line  1290 file /work/zw18965/.conda/envs/p4env/share/psi4/basis/def2-tzvppd.gbs 


         ---------------------------------------------------------
                                   SCF
               by Justin Turney, Rob Parrish, Andy Simmonett
                          and Daniel G. A. Smith
                              RKS Reference
                       24 Threads, 137329 MiB Core
         ---------------------------------------------------------

  ==> Geometry <==

    Molecular point group: d2h
    Full point group: D_inf_h

    Geometry (in Angstrom), charge = 0, multiplicity = 1:

       Center              X                  Y                   Z               Mass       
    ------------   -----------------  -----------------  -----------------  -----------------
         CU           0.000000000000     0.000000000000     1.121823952823    62.929597720000
         CU           0.000000000000     0.000000000000    -1.121823952823    62.929597720000

  Running in d2h symmetry.

  Rotational constants: A = ************  B =      0.10643  C =      0.10643 [cm^-1]
  Rotational constants: A = ************  B =   3190.67692  C =   3190.67692 [MHz]
  Nuclear repulsion =  198.354667438465157

  Charge       = 0
  Multiplicity = 1
  Electrons    = 58
  Nalpha       = 29
  Nbeta        = 29

  ==> Algorithm <==

  SCF Algorithm Type is DF.
  DIIS enabled.
  MOM disabled.
  Fractional occupation disabled.
  Guess Type is READ.
  Energy threshold   = 1.00e-08
  Density threshold  = 1.00e-08
  Integral threshold = 0.00e+00

  ==> Primary Basis <==

  Basis Set: DEF2-TZVPPD
    Blend: DEF2-TZVPPD
    Number of shells: 38
    Number of basis function: 134
    Number of Cartesian functions: 166
    Spherical Harmonics?: true
    Max angular momentum: 4

  ==> DFT Potential <==

   => Composite Functional: MN15-D3BJ <= 

   MN15 Hybrid Meta-GGA Exchange-Correlation Functional

    H. S. Yu, X. He, S. L. Li, and D. G. Truhlar, Chem. Sci. 7, 5032-5051, 2016


    Deriv               =              1
    GGA                 =           TRUE
    Meta                =           TRUE

    Exchange Hybrid     =           TRUE
    MP2 Hybrid          =          FALSE

   => Exchange Functionals <=

    1.0000   XC_HYB_MGGA_X_MN15

   => Exact (HF) Exchange <=

    0.4400               HF 

   => Correlation Functionals <=

    1.0000   XC_MGGA_C_MN15

   => Molecular Quadrature <=

    Radial Scheme          =       TREUTLER
    Pruning Scheme         =           FLAT
    Nuclear Scheme         =       TREUTLER

    BS radius alpha        =              1
    Pruning alpha          =              1
    Radial Points          =             75
    Spherical Points       =            302
    Total Points           =          45300
    Total Blocks           =            426
    Max Points             =            256
    Max Functions          =            129

   => MN15-D3(BJ): Empirical Dispersion <=

    Grimme's -D3 (BJ-damping) Dispersion Correction
    Grimme S.; Ehrlich S.; Goerigk L. (2011), J. Comput. Chem., 32: 1456
    Parametrisation from:    L. Goerigk, A. Hansen, C. Bauer, S. Ehrlich, A. Najibi, S. Grimme, Phys. Chem. Chem. Phys. 19, 32184-32215, 2017

        s6 =       1.000000
        s8 =       2.097100
        a1 =       0.786200
        a2 =       7.592300

   => Loading Basis Set <=

    Name: (DEF2-TZVPPD AUX)
    Role: JKFIT
    Keyword: DF_BASIS_SCF
    atoms 1-2 entry CU         line  2361 file /work/zw18965/.conda/envs/p4env/share/psi4/basis/def2-tzvpp-jkfit.gbs 

   => Loading Basis Set <=

    Name: DEF2-TZVPPD
    Role: ORBITAL
    Keyword: BASIS
    atoms 1-2 entry CU         line  1290 file /work/zw18965/.conda/envs/p4env/share/psi4/basis/def2-tzvppd.gbs 

  Reading orbitals from file 180, no projection.

  ==> Pre-Iterations <==

   -------------------------------------------------------
    Irrep   Nso     Nmo     Nalpha   Nbeta   Ndocc  Nsocc
   -------------------------------------------------------
     Ag        27      27       0       0       0       0
     B1g        8       8       0       0       0       0
     B2g       16      16       0       0       0       0
     B3g       16      16       0       0       0       0
     Au         8       8       0       0       0       0
     B1u       27      27       0       0       0       0
     B2u       16      16       0       0       0       0
     B3u       16      16       0       0       0       0
   -------------------------------------------------------
    Total     134     134      29      29      29       0
   -------------------------------------------------------

  ==> Integral Setup <==

  DFHelper Memory: AOs need 0.078 GiB; user supplied 100.269 GiB. Using in-core AOs.

  ==> MemDFJK: Density-Fitted J/K Matrices <==

    J tasked:                   Yes
    K tasked:                   Yes
    wK tasked:                   No
    OpenMP threads:              24
    Memory [MiB]:            102675
    Algorithm:                 Core
    Schwarz Cutoff:           1E-12
    Mask sparsity (%):       4.9900
    Fitting Condition:        1E-10

   => Auxiliary Basis Set <=

  Basis Set: (DEF2-TZVPPD AUX)
    Blend: DEF2-TZVPP-JKFIT
    Number of shells: 116
    Number of basis function: 528
    Number of Cartesian functions: 754
    Spherical Harmonics?: true
    Max angular momentum: 6

  Cached 100.0% of DFT collocation blocks in 0.314 [GiB].

  Minimum eigenvalue in the overlap matrix is 8.0909911544E-04.
  Using Symmetric Orthogonalization.

  SCF Guess: Orbitals guess was supplied from a previous computation.

  ==> Iterations <==

                           Total Energy        Delta E     RMS |[F,P]|

   @DF-RKS iter   0: -3281.58638164631338   -3.28159e+03   1.73078e-03 
   @DF-RKS iter   1: -3281.57144084259517    1.49408e-02   1.10312e-04 DIIS
   @DF-RKS iter   2: -3281.57141896484472    2.18778e-05   2.73155e-04 DIIS
   @DF-RKS iter   3: -3281.57144579000624   -2.68252e-05   8.21095e-06 DIIS
   @DF-RKS iter   4: -3281.57144585069682   -6.06906e-08   2.83378e-06 DIIS
   @DF-RKS iter   5: -3281.57144586056484   -9.86802e-09   1.16498e-06 DIIS
   @DF-RKS iter   6: -3281.57144586242293   -1.85810e-09   3.18058e-07 DIIS
   @DF-RKS iter   7: -3281.57144586274717   -3.24235e-10   6.06058e-08 DIIS
   @DF-RKS iter   8: -3281.57144586279037   -4.32010e-11   3.05814e-08 DIIS
   @DF-RKS iter   9: -3281.57144586278946    9.09495e-13   4.12420e-09 DIIS
  Energy and wave function converged.


  ==> Post-Iterations <==

    Orbital Energies [Eh]
    ---------------------

    Doubly Occupied:                                                      

       1B1u -320.685197     1Ag  -320.685182     2B1u  -37.854891  
       2Ag   -37.854675     3B1u  -33.706822     3Ag   -33.706812  
       1B2g  -33.704141     1B3g  -33.704141     1B3u  -33.704132  
       1B2u  -33.704132     4Ag    -4.075379     4B1u   -4.074638  
       5Ag    -2.749497     2B3u   -2.744248     2B2u   -2.744248  
       5B1u   -2.743757     2B2g   -2.743756     2B3g   -2.743756  
       6Ag    -0.344402     3B2u   -0.332899     3B3u   -0.332899  
       7Ag    -0.316923     1B1g   -0.316920     6B1u   -0.309082  
       1Au    -0.309078     3B3g   -0.297733     3B2g   -0.297733  
       7B1u   -0.293363     8Ag    -0.236223  

    Virtual:                                                              

       8B1u   -0.062292     4B2u   -0.007092     4B3u   -0.007092  
       9Ag     0.035146     4B2g    0.074324     4B3g    0.074324  
       9B1u    0.084783    10Ag     0.140530    11Ag     0.159212  
       5B3u    0.159735     5B2u    0.159735    12Ag     0.195806  
       2B1g    0.195809     5B2g    0.204272     5B3g    0.204272  
      10B1u    0.227548    11B1u    0.264527     6B3u    0.266792  
       6B2u    0.266792    12B1u    0.282716     2Au     0.282718  
      13Ag     0.370937     6B2g    0.386054     6B3g    0.386054  
      13B1u    0.555470    14Ag     0.678807     7B3u    0.696436  
       7B2u    0.696436     7B2g    0.781584     7B3g    0.781584  
      14B1u    0.835744     8B2u    0.881515     8B3u    0.881515  
       3B1g    0.915104    15Ag     0.915133     3Au     0.992068  
      15B1u    0.992098    16Ag     1.017602     8B2g    1.128027  
       8B3g    1.128027    16B1u    1.333176     9B3u    2.975117  
       9B2u    2.975117    17Ag     3.020830    17B1u    3.036291  
       9B2g    3.059130     9B3g    3.059130    18Ag     3.105230  
      10B3u    3.393763    10B2u    3.393763    19Ag     3.418560  
       4B1g    3.418664    20Ag     3.418694    11B3u    3.430259  
      11B2u    3.430259    10B2g    3.430717    10B3g    3.430717  
       4Au     3.430765    18B1u    3.430797    11B2g    3.437845  
      11B3g    3.437845    19B1u    3.457683    20B1u    3.553744  
      21Ag     3.615694     5B1g    3.615703    21B1u    3.659448  
       5Au     3.659455    12B2u    3.676685    12B3u    3.676685  
      12B3g    3.758899    12B2g    3.758899    22Ag     3.930815  
      22B1u    4.069539    23Ag    12.717917    13B2u   12.718168  
      13B3u   12.718168    13B3g   12.718663    13B2g   12.718663  
      24Ag    12.718974    23B1u   12.718999     6B1g   12.719004  
       6Au    12.719028    24B1u   12.719720    14B2u   12.720477  
      14B3u   12.720477    14B3g   12.720477    14B2g   12.720477  
      25B1u   12.721911    25Ag    12.721912     7Au    12.722074  
       7B1g   12.722075    26Ag    12.873077    15B3u   12.876051  
      15B2u   12.876051     8B1g   12.878374    27Ag    12.878499  
      16B3u   12.879654    16B2u   12.879654    15B2g   12.879782  
      15B3g   12.879782     8Au    12.881181    26B1u   12.881306  
      16B2g   12.901255    16B3g   12.901255    27B1u   13.007050  

    Final Occupation by Irrep:
             Ag   B1g   B2g   B3g    Au   B1u   B2u   B3u 
    DOCC [     8,    1,    3,    3,    1,    7,    3,    3 ]

  @DF-RKS Final Energy: -3281.57144586278946

   => Energetics <=

    Nuclear Repulsion Energy =            198.3546674384651567
    One-Electron Energy =               -4971.6988591888666633
    Two-Electron Energy =                1568.9746773564613704
    DFT Exchange-Correlation Energy =     -77.2018999288491869
    Empirical Dispersion Energy =          -0.0000315400000000
    VV10 Nonlocal Energy =                  0.0000000000000000
    Total Energy =                      -3281.5714458627894601

Computation Completed


Properties will be evaluated at   0.000000,   0.000000,   0.000000 [a0]

Properties computed using the SCF density matrix

  Nuclear Dipole Moment: [e a0]
     X:     0.0000      Y:     0.0000      Z:    -0.0000

  Electronic Dipole Moment: [e a0]
     X:     0.0000      Y:     0.0000      Z:     0.0000

  Dipole Moment: [e a0]
     X:     0.0000      Y:     0.0000      Z:    -0.0000     Total:     0.0000

  Dipole Moment: [D]
     X:     0.0000      Y:     0.0000      Z:    -0.0000     Total:     0.0000


*** tstop() called on bp1-compute00070.data.bp.acrc.priv at Fri Oct 29 08:43:51 2021
Module time:
	user time   =      29.47 seconds =       0.49 minutes
	system time =       1.70 seconds =       0.03 minutes
	total time  =          1 seconds =       0.02 minutes
Total time:
	user time   =     111.13 seconds =       1.85 minutes
	system time =      13.44 seconds =       0.22 minutes
	total time  =          9 seconds =       0.15 minutes

*** tstart() called on bp1-compute00070.data.bp.acrc.priv
*** at Fri Oct 29 08:43:51 2021


         ------------------------------------------------------------
                                   SCF GRAD                          
                          Rob Parrish, Justin Turney,                
                       Andy Simmonett, and Alex Sokolov              
         ------------------------------------------------------------

  ==> Geometry <==

    Molecular point group: d2h
    Full point group: D_inf_h

    Geometry (in Angstrom), charge = 0, multiplicity = 1:

       Center              X                  Y                   Z               Mass       
    ------------   -----------------  -----------------  -----------------  -----------------
         CU           0.000000000000     0.000000000000     1.121823952823    62.929597720000
         CU           0.000000000000     0.000000000000    -1.121823952823    62.929597720000

  Nuclear repulsion =  198.354667438465157

  ==> Basis Set <==

  Basis Set: DEF2-TZVPPD
    Blend: DEF2-TZVPPD
    Number of shells: 38
    Number of basis function: 134
    Number of Cartesian functions: 166
    Spherical Harmonics?: true
    Max angular momentum: 4

  ==> DFJKGrad: Density-Fitted SCF Gradients <==

    Gradient:                    1
    J tasked:                  Yes
    K tasked:                  Yes
    wK tasked:                  No
    OpenMP threads:             24
    Integrals threads:          24
    Memory [MiB]:           102996
    Schwarz Cutoff:          0E+00
    Fitting Condition:       1E-10

   => Auxiliary Basis Set <=

  Basis Set: (DEF2-TZVPPD AUX)
    Blend: DEF2-TZVPP-JKFIT
    Number of shells: 116
    Number of basis function: 528
    Number of Cartesian functions: 754
    Spherical Harmonics?: true
    Max angular momentum: 6

  ==> DFT Potential <==

   => Composite Functional: MN15-D3BJ <= 

   MN15 Hybrid Meta-GGA Exchange-Correlation Functional

    H. S. Yu, X. He, S. L. Li, and D. G. Truhlar, Chem. Sci. 7, 5032-5051, 2016


    Deriv               =              1
    GGA                 =           TRUE
    Meta                =           TRUE

    Exchange Hybrid     =           TRUE
    MP2 Hybrid          =          FALSE

   => Exchange Functionals <=

    1.0000   XC_HYB_MGGA_X_MN15

   => Exact (HF) Exchange <=

    0.4400               HF 

   => Correlation Functionals <=

    1.0000   XC_MGGA_C_MN15

   => Molecular Quadrature <=

    Radial Scheme          =       TREUTLER
    Pruning Scheme         =           FLAT
    Nuclear Scheme         =       TREUTLER

    BS radius alpha        =              1
    Pruning alpha          =              1
    Radial Points          =             75
    Spherical Points       =            302
    Total Points           =          45300
    Total Blocks           =            426
    Max Points             =            256
    Max Functions          =            129


  -Total Gradient:
     Atom            X                  Y                   Z
    ------   -----------------  -----------------  -----------------
       1       -0.000000000000     0.000000000000    -0.004915874479
       2        0.000000000000     0.000000000000     0.004915874479


*** tstop() called on bp1-compute00070.data.bp.acrc.priv at Fri Oct 29 08:43:56 2021
Module time:
	user time   =      38.40 seconds =       0.64 minutes
	system time =       2.74 seconds =       0.05 minutes
	total time  =          5 seconds =       0.08 minutes
Total time:
	user time   =     150.32 seconds =       2.51 minutes
	system time =      16.24 seconds =       0.27 minutes
	total time  =         14 seconds =       0.23 minutes

			-----------------------------------------
			 OPTKING 2.0: for geometry optimizations 
			  - R.A. King,  Bethel University        
			-----------------------------------------
	At level 1: Red. Int., RFO, no backsteps, dynamic trust

	Previous internal coordinate definitions found.
	---Fragment 1 Geometry and Gradient---
	 CU          0.0000000000        0.0000000000        2.1199400318
	 CU          0.0000000000        0.0000000000       -2.1199400318
	            -0.0000000000        0.0000000000       -0.0049158745
	             0.0000000000        0.0000000000        0.0049158745

	---Fragment 1 Intrafragment Coordinates---
	 - Coordinate -           - BOHR/RAD -       - ANG/DEG -
	 R(1,2)           =         4.239880	       2.243648

	Current energy   :     -3281.5714458628

	Energy change for the previous step:
		Projected    :         0.0009272904
		Actual       :        -0.0004005777

	Performing BFGS update.
	Previous computed or guess Hessian on step 1.
	Steps to be used in Hessian update: 1
	Taking RFO optimization step.
	Going to follow RFO solution 1.
	Using RFO vector 1.
	Norm of target step-size    0.05307
	Projected energy change by RFO approximation:         0.0011439283

	Back-transformation to cartesian coordinates...
	Successfully converged to displaced geometry.

	--- Internal Coordinate Step in ANG or DEG, aJ/ANG or AJ/DEG ---
	 ---------------------------------------------------------------------------
	   Coordinate                Previous        Force       Change         New 
	   ----------                --------       ------       ------       ------
	    1 R(1,2)          =      2.243648     0.040501     0.028081     2.271729
	 ---------------------------------------------------------------------------
	Successfully symmetrized geometry.

  ==> Convergence Check <==

  Measures of convergence in internal coordinates in au.
  Criteria marked as inactive (o), active & met (*), and active & unmet ( ).
  ---------------------------------------------------------------------------------------------
   Step     Total Energy     Delta E     MAX Force     RMS Force      MAX Disp      RMS Disp   
  ---------------------------------------------------------------------------------------------
    Convergence Criteria    1.00e-06 *    3.00e-04 *             o    1.20e-03 *             o
  ---------------------------------------------------------------------------------------------
      2   -3281.57144586   -4.01e-04      4.92e-03      4.92e-03 o    5.31e-02      5.31e-02 o  ~
  ---------------------------------------------------------------------------------------------

	Writing optimization data to binary file.
	Structure for next step:
	Cartesian Geometry (in Angstrom)
	   CU     0.0000000000   0.0000000000   1.1358646910
	   CU     0.0000000000   0.0000000000  -1.1358646910
			--------------------------
			 OPTKING Finished Execution 
			--------------------------

    Structure for next step:
    Molecular point group: d2h
    Full point group: D_inf_h

    Geometry (in Angstrom), charge = 0, multiplicity = 1:

    CU           0.000000000000     0.000000000000     1.135864695475
    CU           0.000000000000     0.000000000000    -1.135864695475

gradient() will perform analytic gradient computation.

*** tstart() called on bp1-compute00070.data.bp.acrc.priv
*** at Fri Oct 29 08:43:56 2021

   => Loading Basis Set <=

    Name: DEF2-TZVPPD
    Role: ORBITAL
    Keyword: BASIS
    atoms 1-2 entry CU         line  1290 file /work/zw18965/.conda/envs/p4env/share/psi4/basis/def2-tzvppd.gbs 


         ---------------------------------------------------------
                                   SCF
               by Justin Turney, Rob Parrish, Andy Simmonett
                          and Daniel G. A. Smith
                              RKS Reference
                       24 Threads, 137329 MiB Core
         ---------------------------------------------------------

  ==> Geometry <==

    Molecular point group: d2h
    Full point group: D_inf_h

    Geometry (in Angstrom), charge = 0, multiplicity = 1:

       Center              X                  Y                   Z               Mass       
    ------------   -----------------  -----------------  -----------------  -----------------
         CU           0.000000000000     0.000000000000     1.135864695475    62.929597720000
         CU           0.000000000000     0.000000000000    -1.135864695475    62.929597720000

  Running in d2h symmetry.

  Rotational constants: A = ************  B =      0.10381  C =      0.10381 [cm^-1]
  Rotational constants: A = ************  B =   3112.28275  C =   3112.28275 [MHz]
  Nuclear repulsion =  195.902749661355301

  Charge       = 0
  Multiplicity = 1
  Electrons    = 58
  Nalpha       = 29
  Nbeta        = 29

  ==> Algorithm <==

  SCF Algorithm Type is DF.
  DIIS enabled.
  MOM disabled.
  Fractional occupation disabled.
  Guess Type is READ.
  Energy threshold   = 1.00e-08
  Density threshold  = 1.00e-08
  Integral threshold = 0.00e+00

  ==> Primary Basis <==

  Basis Set: DEF2-TZVPPD
    Blend: DEF2-TZVPPD
    Number of shells: 38
    Number of basis function: 134
    Number of Cartesian functions: 166
    Spherical Harmonics?: true
    Max angular momentum: 4

  ==> DFT Potential <==

   => Composite Functional: MN15-D3BJ <= 

   MN15 Hybrid Meta-GGA Exchange-Correlation Functional

    H. S. Yu, X. He, S. L. Li, and D. G. Truhlar, Chem. Sci. 7, 5032-5051, 2016


    Deriv               =              1
    GGA                 =           TRUE
    Meta                =           TRUE

    Exchange Hybrid     =           TRUE
    MP2 Hybrid          =          FALSE

   => Exchange Functionals <=

    1.0000   XC_HYB_MGGA_X_MN15

   => Exact (HF) Exchange <=

    0.4400               HF 

   => Correlation Functionals <=

    1.0000   XC_MGGA_C_MN15

   => Molecular Quadrature <=

    Radial Scheme          =       TREUTLER
    Pruning Scheme         =           FLAT
    Nuclear Scheme         =       TREUTLER

    BS radius alpha        =              1
    Pruning alpha          =              1
    Radial Points          =             75
    Spherical Points       =            302
    Total Points           =          45300
    Total Blocks           =            426
    Max Points             =            256
    Max Functions          =            129

   => MN15-D3(BJ): Empirical Dispersion <=

    Grimme's -D3 (BJ-damping) Dispersion Correction
    Grimme S.; Ehrlich S.; Goerigk L. (2011), J. Comput. Chem., 32: 1456
    Parametrisation from:    L. Goerigk, A. Hansen, C. Bauer, S. Ehrlich, A. Najibi, S. Grimme, Phys. Chem. Chem. Phys. 19, 32184-32215, 2017

        s6 =       1.000000
        s8 =       2.097100
        a1 =       0.786200
        a2 =       7.592300

   => Loading Basis Set <=

    Name: (DEF2-TZVPPD AUX)
    Role: JKFIT
    Keyword: DF_BASIS_SCF
    atoms 1-2 entry CU         line  2361 file /work/zw18965/.conda/envs/p4env/share/psi4/basis/def2-tzvpp-jkfit.gbs 

   => Loading Basis Set <=

    Name: DEF2-TZVPPD
    Role: ORBITAL
    Keyword: BASIS
    atoms 1-2 entry CU         line  1290 file /work/zw18965/.conda/envs/p4env/share/psi4/basis/def2-tzvppd.gbs 

  Reading orbitals from file 180, no projection.

  ==> Pre-Iterations <==

   -------------------------------------------------------
    Irrep   Nso     Nmo     Nalpha   Nbeta   Ndocc  Nsocc
   -------------------------------------------------------
     Ag        27      27       0       0       0       0
     B1g        8       8       0       0       0       0
     B2g       16      16       0       0       0       0
     B3g       16      16       0       0       0       0
     Au         8       8       0       0       0       0
     B1u       27      27       0       0       0       0
     B2u       16      16       0       0       0       0
     B3u       16      16       0       0       0       0
   -------------------------------------------------------
    Total     134     134      29      29      29       0
   -------------------------------------------------------

  ==> Integral Setup <==

  DFHelper Memory: AOs need 0.077 GiB; user supplied 100.270 GiB. Using in-core AOs.

  ==> MemDFJK: Density-Fitted J/K Matrices <==

    J tasked:                   Yes
    K tasked:                   Yes
    wK tasked:                   No
    OpenMP threads:              24
    Memory [MiB]:            102676
    Algorithm:                 Core
    Schwarz Cutoff:           1E-12
    Mask sparsity (%):       5.3464
    Fitting Condition:        1E-10

   => Auxiliary Basis Set <=

  Basis Set: (DEF2-TZVPPD AUX)
    Blend: DEF2-TZVPP-JKFIT
    Number of shells: 116
    Number of basis function: 528
    Number of Cartesian functions: 754
    Spherical Harmonics?: true
    Max angular momentum: 6

  Cached 100.0% of DFT collocation blocks in 0.313 [GiB].

  Minimum eigenvalue in the overlap matrix is 8.4623082053E-04.
  Using Symmetric Orthogonalization.

  SCF Guess: Orbitals guess was supplied from a previous computation.

  ==> Iterations <==

                           Total Energy        Delta E     RMS |[F,P]|

   @DF-RKS iter   0: -3281.58523110739225   -3.28159e+03   1.60514e-03 
   @DF-RKS iter   1: -3281.57158593135000    1.36452e-02   9.19033e-05 DIIS
   @DF-RKS iter   2: -3281.57157188338579    1.40480e-05   2.22546e-04 DIIS
   @DF-RKS iter   3: -3281.57158956824287   -1.76849e-05   1.00211e-05 DIIS
   @DF-RKS iter   4: -3281.57158964900418   -8.07613e-08   2.25018e-06 DIIS
   @DF-RKS iter   5: -3281.57158965903227   -1.00281e-08   1.33270e-06 DIIS
   @DF-RKS iter   6: -3281.57158966118641   -2.15414e-09   3.25133e-07 DIIS
   @DF-RKS iter   7: -3281.57158966155157   -3.65162e-10   6.49212e-08 DIIS
   @DF-RKS iter   8: -3281.57158966160250   -5.09317e-11   3.21019e-08 DIIS
   @DF-RKS iter   9: -3281.57158966160250    0.00000e+00   3.69740e-09 DIIS
  Energy and wave function converged.


  ==> Post-Iterations <==

    Orbital Energies [Eh]
    ---------------------

    Doubly Occupied:                                                      

       1B1u -320.684944     1Ag  -320.684930     2B1u  -37.854479  
       2Ag   -37.854263     3B1u  -33.706401     3Ag   -33.706390  
       1B3g  -33.703784     1B2g  -33.703784     1B2u  -33.703776  
       1B3u  -33.703776     4Ag    -4.074924     4B1u   -4.074296  
       5Ag    -2.748600     2B3u   -2.743937     2B2u   -2.743937  
       2B2g   -2.743508     2B3g   -2.743508     5B1u   -2.743502  
       6Ag    -0.342356     3B2u   -0.331393     3B3u   -0.331393  
       7Ag    -0.316443     1B1g   -0.316439     6B1u   -0.309097  
       1Au    -0.309093     3B3g   -0.298255     3B2g   -0.298255  
       7B1u   -0.293998     8Ag    -0.235490  

    Virtual:                                                              

       8B1u   -0.063147     4B2u   -0.006943     4B3u   -0.006943  
       9Ag     0.034399     4B3g    0.073554     4B2g    0.073554  
       9B1u    0.084873    10Ag     0.140375    11Ag     0.159007  
       5B3u    0.159971     5B2u    0.159971    12Ag     0.195637  
       2B1g    0.195640     5B3g    0.203719     5B2g    0.203719  
      10B1u    0.226807    11B1u    0.262982     6B2u    0.265584  
       6B3u    0.265584    12B1u    0.281933     2Au     0.281935  
      13Ag     0.370434     6B3g    0.384587     6B2g    0.384587  
      13B1u    0.550129    14Ag     0.677306     7B3u    0.698987  
       7B2u    0.698987     7B2g    0.779767     7B3g    0.779767  
      14B1u    0.834067     8B2u    0.879564     8B3u    0.879564  
       3B1g    0.916941    15Ag     0.916977     3Au     0.990504  
      15B1u    0.990540    16Ag     1.012913     8B3g    1.123857  
       8B2g    1.123857    16B1u    1.324371     9B3u    2.974759  
       9B2u    2.974759    17Ag     3.020117    17B1u    3.044887  
       9B2g    3.058737     9B3g    3.058737    18Ag     3.090206  
      10B2u    3.396128    10B3u    3.396128     4B1g    3.420226  
      19Ag     3.420263    20Ag     3.426764    11B3u    3.430400  
      11B2u    3.430400     4Au     3.430532    18B1u    3.430575  
      10B2g    3.430761    10B3g    3.430761    11B3g    3.435144  
      11B2g    3.435144    19B1u    3.449774    20B1u    3.541117  
       5B1g    3.615606    21Ag     3.615619     5Au     3.658923  
      21B1u    3.658933    12B2u    3.671631    12B3u    3.671631  
      12B2g    3.756576    12B3g    3.756576    22Ag     3.918806  
      22B1u    4.061979    23Ag    12.718464    13B2u   12.718601  
      13B3u   12.718601    13B3g   12.719019    13B2g   12.719019  
       6B1g   12.719383    24Ag    12.719386     6Au    12.719403  
      23B1u   12.719406    24B1u   12.720182    14B3u   12.720774  
      14B2u   12.720774    14B2g   12.720774    14B3g   12.720774  
      25B1u   12.722078    25Ag    12.722079     7Au    12.722229  
       7B1g   12.722230    26Ag    12.877008    15B2u   12.877564  
      15B3u   12.877564     8B1g   12.879011    27Ag    12.879142  
      16B3u   12.879926    16B2u   12.879926    15B2g   12.880024  
      15B3g   12.880024     8Au    12.881271    26B1u   12.881402  
      16B3g   12.898480    16B2g   12.898480    27B1u   12.994307  

    Final Occupation by Irrep:
             Ag   B1g   B2g   B3g    Au   B1u   B2u   B3u 
    DOCC [     8,    1,    3,    3,    1,    7,    3,    3 ]

  @DF-RKS Final Energy: -3281.57158966160250

   => Energetics <=

    Nuclear Repulsion Energy =            195.9027496613553012
    One-Electron Energy =               -4966.8206983903028231
    Two-Electron Energy =                1566.5462867354269747
    DFT Exchange-Correlation Energy =     -77.1998960880824541
    Empirical Dispersion Energy =          -0.0000315800000000
    VV10 Nonlocal Energy =                  0.0000000000000000
    Total Energy =                      -3281.5715896616025020

Computation Completed


Properties will be evaluated at   0.000000,   0.000000,   0.000000 [a0]

Properties computed using the SCF density matrix

  Nuclear Dipole Moment: [e a0]
     X:     0.0000      Y:     0.0000      Z:    -0.0000

  Electronic Dipole Moment: [e a0]
     X:     0.0000      Y:     0.0000      Z:     0.0000

  Dipole Moment: [e a0]
     X:     0.0000      Y:     0.0000      Z:    -0.0000     Total:     0.0000

  Dipole Moment: [D]
     X:     0.0000      Y:     0.0000      Z:    -0.0000     Total:     0.0000


*** tstop() called on bp1-compute00070.data.bp.acrc.priv at Fri Oct 29 08:43:58 2021
Module time:
	user time   =      28.69 seconds =       0.48 minutes
	system time =       1.34 seconds =       0.02 minutes
	total time  =          2 seconds =       0.03 minutes
Total time:
	user time   =     179.65 seconds =       2.99 minutes
	system time =      17.61 seconds =       0.29 minutes
	total time  =         16 seconds =       0.27 minutes

*** tstart() called on bp1-compute00070.data.bp.acrc.priv
*** at Fri Oct 29 08:43:58 2021


         ------------------------------------------------------------
                                   SCF GRAD                          
                          Rob Parrish, Justin Turney,                
                       Andy Simmonett, and Alex Sokolov              
         ------------------------------------------------------------

  ==> Geometry <==

    Molecular point group: d2h
    Full point group: D_inf_h

    Geometry (in Angstrom), charge = 0, multiplicity = 1:

       Center              X                  Y                   Z               Mass       
    ------------   -----------------  -----------------  -----------------  -----------------
         CU           0.000000000000     0.000000000000     1.135864695475    62.929597720000
         CU           0.000000000000     0.000000000000    -1.135864695475    62.929597720000

  Nuclear repulsion =  195.902749661355301

  ==> Basis Set <==

  Basis Set: DEF2-TZVPPD
    Blend: DEF2-TZVPPD
    Number of shells: 38
    Number of basis function: 134
    Number of Cartesian functions: 166
    Spherical Harmonics?: true
    Max angular momentum: 4

  ==> DFJKGrad: Density-Fitted SCF Gradients <==

    Gradient:                    1
    J tasked:                  Yes
    K tasked:                  Yes
    wK tasked:                  No
    OpenMP threads:             24
    Integrals threads:          24
    Memory [MiB]:           102996
    Schwarz Cutoff:          0E+00
    Fitting Condition:       1E-10

   => Auxiliary Basis Set <=

  Basis Set: (DEF2-TZVPPD AUX)
    Blend: DEF2-TZVPP-JKFIT
    Number of shells: 116
    Number of basis function: 528
    Number of Cartesian functions: 754
    Spherical Harmonics?: true
    Max angular momentum: 6

  ==> DFT Potential <==

   => Composite Functional: MN15-D3BJ <= 

   MN15 Hybrid Meta-GGA Exchange-Correlation Functional

    H. S. Yu, X. He, S. L. Li, and D. G. Truhlar, Chem. Sci. 7, 5032-5051, 2016


    Deriv               =              1
    GGA                 =           TRUE
    Meta                =           TRUE

    Exchange Hybrid     =           TRUE
    MP2 Hybrid          =          FALSE

   => Exchange Functionals <=

    1.0000   XC_HYB_MGGA_X_MN15

   => Exact (HF) Exchange <=

    0.4400               HF 

   => Correlation Functionals <=

    1.0000   XC_MGGA_C_MN15

   => Molecular Quadrature <=

    Radial Scheme          =       TREUTLER
    Pruning Scheme         =           FLAT
    Nuclear Scheme         =       TREUTLER

    BS radius alpha        =              1
    Pruning alpha          =              1
    Radial Points          =             75
    Spherical Points       =            302
    Total Points           =          45300
    Total Blocks           =            426
    Max Points             =            256
    Max Functions          =            129


  -Total Gradient:
     Atom            X                  Y                   Z
    ------   -----------------  -----------------  -----------------
       1        0.000000000000     0.000000000000    -0.000540009532
       2       -0.000000000000     0.000000000000     0.000540009532


*** tstop() called on bp1-compute00070.data.bp.acrc.priv at Fri Oct 29 08:44:03 2021
Module time:
	user time   =      38.61 seconds =       0.64 minutes
	system time =       2.86 seconds =       0.05 minutes
	total time  =          5 seconds =       0.08 minutes
Total time:
	user time   =     219.02 seconds =       3.65 minutes
	system time =      20.53 seconds =       0.34 minutes
	total time  =         21 seconds =       0.35 minutes

			-----------------------------------------
			 OPTKING 2.0: for geometry optimizations 
			  - R.A. King,  Bethel University        
			-----------------------------------------
	At level 1: Red. Int., RFO, no backsteps, dynamic trust

	Previous internal coordinate definitions found.
	---Fragment 1 Geometry and Gradient---
	 CU          0.0000000000        0.0000000000        2.1464731900
	 CU          0.0000000000        0.0000000000       -2.1464731900
	             0.0000000000        0.0000000000       -0.0005400095
	            -0.0000000000        0.0000000000        0.0005400095

	---Fragment 1 Intrafragment Coordinates---
	 - Coordinate -           - BOHR/RAD -       - ANG/DEG -
	 R(1,2)           =         4.292946	       2.271729

	Current energy   :     -3281.5715896616

	Energy change for the previous step:
		Projected    :         0.0011439283
		Actual       :        -0.0001437988

	Performing BFGS update.
	Previous computed or guess Hessian on step 1.
	Steps to be used in Hessian update: 2 1
	Taking RFO optimization step.
	Going to follow RFO solution 1.
	Using RFO vector 1.
	Norm of target step-size    0.00617
	Projected energy change by RFO approximation:         0.0000157216

	Back-transformation to cartesian coordinates...
	Successfully converged to displaced geometry.

	--- Internal Coordinate Step in ANG or DEG, aJ/ANG or AJ/DEG ---
	 ---------------------------------------------------------------------------
	   Coordinate                Previous        Force       Change         New 
	   ----------                --------       ------       ------       ------
	    1 R(1,2)          =      2.271729     0.004449     0.003267     2.274996
	 ---------------------------------------------------------------------------
	Successfully symmetrized geometry.

  ==> Convergence Check <==

  Measures of convergence in internal coordinates in au.
  Criteria marked as inactive (o), active & met (*), and active & unmet ( ).
  ---------------------------------------------------------------------------------------------
   Step     Total Energy     Delta E     MAX Force     RMS Force      MAX Disp      RMS Disp   
  ---------------------------------------------------------------------------------------------
    Convergence Criteria    1.00e-06 *    3.00e-04 *             o    1.20e-03 *             o
  ---------------------------------------------------------------------------------------------
      3   -3281.57158966   -1.44e-04      5.40e-04      5.40e-04 o    6.17e-03      6.17e-03 o  ~
  ---------------------------------------------------------------------------------------------

	Writing optimization data to binary file.
	Structure for next step:
	Cartesian Geometry (in Angstrom)
	   CU     0.0000000000   0.0000000000   1.1374981228
	   CU     0.0000000000   0.0000000000  -1.1374981228
			--------------------------
			 OPTKING Finished Execution 
			--------------------------

    Structure for next step:
    Molecular point group: d2h
    Full point group: D_inf_h

    Geometry (in Angstrom), charge = 0, multiplicity = 1:

    CU           0.000000000000     0.000000000000     1.137498127273
    CU           0.000000000000     0.000000000000    -1.137498127273

gradient() will perform analytic gradient computation.

*** tstart() called on bp1-compute00070.data.bp.acrc.priv
*** at Fri Oct 29 08:44:03 2021

   => Loading Basis Set <=

    Name: DEF2-TZVPPD
    Role: ORBITAL
    Keyword: BASIS
    atoms 1-2 entry CU         line  1290 file /work/zw18965/.conda/envs/p4env/share/psi4/basis/def2-tzvppd.gbs 


         ---------------------------------------------------------
                                   SCF
               by Justin Turney, Rob Parrish, Andy Simmonett
                          and Daniel G. A. Smith
                              RKS Reference
                       24 Threads, 137329 MiB Core
         ---------------------------------------------------------

  ==> Geometry <==

    Molecular point group: d2h
    Full point group: D_inf_h

    Geometry (in Angstrom), charge = 0, multiplicity = 1:

       Center              X                  Y                   Z               Mass       
    ------------   -----------------  -----------------  -----------------  -----------------
         CU           0.000000000000     0.000000000000     1.137498127273    62.929597720000
         CU           0.000000000000     0.000000000000    -1.137498127273    62.929597720000

  Running in d2h symmetry.

  Rotational constants: A = ************  B =      0.10352  C =      0.10352 [cm^-1]
  Rotational constants: A = ************  B =   3103.35078  C =   3103.35078 [MHz]
  Nuclear repulsion =  195.621435984442826

  Charge       = 0
  Multiplicity = 1
  Electrons    = 58
  Nalpha       = 29
  Nbeta        = 29

  ==> Algorithm <==

  SCF Algorithm Type is DF.
  DIIS enabled.
  MOM disabled.
  Fractional occupation disabled.
  Guess Type is READ.
  Energy threshold   = 1.00e-08
  Density threshold  = 1.00e-08
  Integral threshold = 0.00e+00

  ==> Primary Basis <==

  Basis Set: DEF2-TZVPPD
    Blend: DEF2-TZVPPD
    Number of shells: 38
    Number of basis function: 134
    Number of Cartesian functions: 166
    Spherical Harmonics?: true
    Max angular momentum: 4

  ==> DFT Potential <==

   => Composite Functional: MN15-D3BJ <= 

   MN15 Hybrid Meta-GGA Exchange-Correlation Functional

    H. S. Yu, X. He, S. L. Li, and D. G. Truhlar, Chem. Sci. 7, 5032-5051, 2016


    Deriv               =              1
    GGA                 =           TRUE
    Meta                =           TRUE

    Exchange Hybrid     =           TRUE
    MP2 Hybrid          =          FALSE

   => Exchange Functionals <=

    1.0000   XC_HYB_MGGA_X_MN15

   => Exact (HF) Exchange <=

    0.4400               HF 

   => Correlation Functionals <=

    1.0000   XC_MGGA_C_MN15

   => Molecular Quadrature <=

    Radial Scheme          =       TREUTLER
    Pruning Scheme         =           FLAT
    Nuclear Scheme         =       TREUTLER

    BS radius alpha        =              1
    Pruning alpha          =              1
    Radial Points          =             75
    Spherical Points       =            302
    Total Points           =          45300
    Total Blocks           =            426
    Max Points             =            256
    Max Functions          =            129

   => MN15-D3(BJ): Empirical Dispersion <=

    Grimme's -D3 (BJ-damping) Dispersion Correction
    Grimme S.; Ehrlich S.; Goerigk L. (2011), J. Comput. Chem., 32: 1456
    Parametrisation from:    L. Goerigk, A. Hansen, C. Bauer, S. Ehrlich, A. Najibi, S. Grimme, Phys. Chem. Chem. Phys. 19, 32184-32215, 2017

        s6 =       1.000000
        s8 =       2.097100
        a1 =       0.786200
        a2 =       7.592300

   => Loading Basis Set <=

    Name: (DEF2-TZVPPD AUX)
    Role: JKFIT
    Keyword: DF_BASIS_SCF
    atoms 1-2 entry CU         line  2361 file /work/zw18965/.conda/envs/p4env/share/psi4/basis/def2-tzvpp-jkfit.gbs 

   => Loading Basis Set <=

    Name: DEF2-TZVPPD
    Role: ORBITAL
    Keyword: BASIS
    atoms 1-2 entry CU         line  1290 file /work/zw18965/.conda/envs/p4env/share/psi4/basis/def2-tzvppd.gbs 

  Reading orbitals from file 180, no projection.

  ==> Pre-Iterations <==

   -------------------------------------------------------
    Irrep   Nso     Nmo     Nalpha   Nbeta   Ndocc  Nsocc
   -------------------------------------------------------
     Ag        27      27       0       0       0       0
     B1g        8       8       0       0       0       0
     B2g       16      16       0       0       0       0
     B3g       16      16       0       0       0       0
     Au         8       8       0       0       0       0
     B1u       27      27       0       0       0       0
     B2u       16      16       0       0       0       0
     B3u       16      16       0       0       0       0
   -------------------------------------------------------
    Total     134     134      29      29      29       0
   -------------------------------------------------------

  ==> Integral Setup <==

  DFHelper Memory: AOs need 0.077 GiB; user supplied 100.270 GiB. Using in-core AOs.

  ==> MemDFJK: Density-Fitted J/K Matrices <==

    J tasked:                   Yes
    K tasked:                   Yes
    wK tasked:                   No
    OpenMP threads:              24
    Memory [MiB]:            102676
    Algorithm:                 Core
    Schwarz Cutoff:           1E-12
    Mask sparsity (%):       5.4355
    Fitting Condition:        1E-10

   => Auxiliary Basis Set <=

  Basis Set: (DEF2-TZVPPD AUX)
    Blend: DEF2-TZVPP-JKFIT
    Number of shells: 116
    Number of basis function: 528
    Number of Cartesian functions: 754
    Spherical Harmonics?: true
    Max angular momentum: 6

  Cached 100.0% of DFT collocation blocks in 0.313 [GiB].

  Minimum eigenvalue in the overlap matrix is 8.5064663903E-04.
  Using Symmetric Orthogonalization.

  SCF Guess: Orbitals guess was supplied from a previous computation.

  ==> Iterations <==

                           Total Energy        Delta E     RMS |[F,P]|

   @DF-RKS iter   0: -3281.57306130746383   -3.28157e+03   1.79834e-04 
   @DF-RKS iter   1: -3281.57159158642344    1.46972e-03   9.37355e-06 DIIS
   @DF-RKS iter   2: -3281.57159145217884    1.34245e-07   2.21927e-05 DIIS
   @DF-RKS iter   3: -3281.57159162687913   -1.74700e-07   1.33515e-06 DIIS
   @DF-RKS iter   4: -3281.57159162821063   -1.33150e-09   2.28772e-07 DIIS
   @DF-RKS iter   5: -3281.57159162835387   -1.43245e-10   1.69324e-07 DIIS
   @DF-RKS iter   6: -3281.57159162838843   -3.45608e-11   3.84635e-08 DIIS
   @DF-RKS iter   7: -3281.57159162839253   -4.09273e-12   7.94600e-09 DIIS
  Energy and wave function converged.


  ==> Post-Iterations <==

    Orbital Energies [Eh]
    ---------------------

    Doubly Occupied:                                                      

       1B1u -320.684917     1Ag  -320.684903     2B1u  -37.854433  
       2Ag   -37.854218     3B1u  -33.706355     3Ag   -33.706343  
       1B2g  -33.703745     1B3g  -33.703745     1B3u  -33.703737  
       1B2u  -33.703737     4Ag    -4.074875     4B1u   -4.074259  
       5Ag    -2.748502     2B2u   -2.743904     2B3u   -2.743904  
       2B3g   -2.743482     2B2g   -2.743482     5B1u   -2.743474  
       6Ag    -0.342127     3B2u   -0.331226     3B3u   -0.331226  
       7Ag    -0.316390     1B1g   -0.316387     6B1u   -0.309100  
       1Au    -0.309097     3B3g   -0.298315     3B2g   -0.298315  
       7B1u   -0.294071     8Ag    -0.235405  

    Virtual:                                                              

       8B1u   -0.063247     4B3u   -0.006927     4B2u   -0.006927  
       9Ag     0.034313     4B2g    0.073464     4B3g    0.073464  
       9B1u    0.084883    10Ag     0.140356    11Ag     0.158985  
       5B2u    0.159999     5B3u    0.159999    12Ag     0.195617  
       2B1g    0.195620     5B2g    0.203656     5B3g    0.203656  
      10B1u    0.226721    11B1u    0.262801     6B3u    0.265443  
       6B2u    0.265443    12B1u    0.281842     2Au     0.281843  
      13Ag     0.370373     6B3g    0.384417     6B2g    0.384417  
      13B1u    0.549506    14Ag     0.677145     7B2u    0.699283  
       7B3u    0.699283     7B3g    0.779560     7B2g    0.779560  
      14B1u    0.833881     8B2u    0.879355     8B3u    0.879355  
       3B1g    0.917151    15Ag     0.917188     3Au     0.990323  
      15B1u    0.990360    16Ag     1.012366     8B3g    1.123364  
       8B2g    1.123364    16B1u    1.323346     9B2u    2.974727  
       9B3u    2.974727    17Ag     3.020036    17B1u    3.045984  
       9B3g    3.058679     9B2g    3.058679    18Ag     3.088475  
      10B3u    3.396382    10B2u    3.396382     4B1g    3.420393  
      19Ag     3.420431    20Ag     3.427586    11B2u    3.430412  
      11B3u    3.430412     4Au     3.430508    18B1u    3.430552  
      10B3g    3.430764    10B2g    3.430764    11B2g    3.434881  
      11B3g    3.434881    19B1u    3.448845    20B1u    3.539710  
       5B1g    3.615599    21Ag     3.615615     5Au     3.658859  
      21B1u    3.658871    12B2u    3.671018    12B3u    3.671018  
      12B3g    3.756311    12B2g    3.756311    22Ag     3.917330  
      22B1u    4.061067    23Ag    12.718523    13B3u   12.718647  
      13B2u   12.718647    13B2g   12.719057    13B3g   12.719057  
       6B1g   12.719424    24Ag    12.719430     6Au    12.719443  
      23B1u   12.719449    24B1u   12.720230    14B3u   12.720805  
      14B2u   12.720805    14B2g   12.720805    14B3g   12.720805  
      25B1u   12.722095    25Ag    12.722096     7Au    12.722245  
       7B1g   12.722245    26Ag    12.877424    15B2u   12.877720  
      15B3u   12.877720     8B1g   12.879079    27Ag    12.879211  
      16B2u   12.879956    16B3u   12.879956    15B3g   12.880050  
      15B2g   12.880050     8Au    12.881283    26B1u   12.881414  
      16B3g   12.898184    16B2g   12.898184    27B1u   12.992884  

    Final Occupation by Irrep:
             Ag   B1g   B2g   B3g    Au   B1u   B2u   B3u 
    DOCC [     8,    1,    3,    3,    1,    7,    3,    3 ]

  @DF-RKS Final Energy: -3281.57159162839253

   => Energetics <=

    Nuclear Repulsion Energy =            195.6214359844428259
    One-Electron Energy =               -4966.2608589339297396
    Two-Electron Energy =                1566.2675331445436768
    DFT Exchange-Correlation Energy =     -77.1996702334491260
    Empirical Dispersion Energy =          -0.0000315900000000
    VV10 Nonlocal Energy =                  0.0000000000000000
    Total Energy =                      -3281.5715916283929801

Computation Completed


Properties will be evaluated at   0.000000,   0.000000,   0.000000 [a0]

Properties computed using the SCF density matrix

  Nuclear Dipole Moment: [e a0]
     X:     0.0000      Y:     0.0000      Z:     0.0000

  Electronic Dipole Moment: [e a0]
     X:     0.0000      Y:     0.0000      Z:     0.0000

  Dipole Moment: [e a0]
     X:     0.0000      Y:     0.0000      Z:     0.0000     Total:     0.0000

  Dipole Moment: [D]
     X:     0.0000      Y:     0.0000      Z:     0.0000     Total:     0.0000


*** tstop() called on bp1-compute00070.data.bp.acrc.priv at Fri Oct 29 08:44:04 2021
Module time:
	user time   =      26.83 seconds =       0.45 minutes
	system time =       1.29 seconds =       0.02 minutes
	total time  =          1 seconds =       0.02 minutes
Total time:
	user time   =     246.59 seconds =       4.11 minutes
	system time =      21.86 seconds =       0.36 minutes
	total time  =         22 seconds =       0.37 minutes

*** tstart() called on bp1-compute00070.data.bp.acrc.priv
*** at Fri Oct 29 08:44:04 2021


         ------------------------------------------------------------
                                   SCF GRAD                          
                          Rob Parrish, Justin Turney,                
                       Andy Simmonett, and Alex Sokolov              
         ------------------------------------------------------------

  ==> Geometry <==

    Molecular point group: d2h
    Full point group: D_inf_h

    Geometry (in Angstrom), charge = 0, multiplicity = 1:

       Center              X                  Y                   Z               Mass       
    ------------   -----------------  -----------------  -----------------  -----------------
         CU           0.000000000000     0.000000000000     1.137498127273    62.929597720000
         CU           0.000000000000     0.000000000000    -1.137498127273    62.929597720000

  Nuclear repulsion =  195.621435984442826

  ==> Basis Set <==

  Basis Set: DEF2-TZVPPD
    Blend: DEF2-TZVPPD
    Number of shells: 38
    Number of basis function: 134
    Number of Cartesian functions: 166
    Spherical Harmonics?: true
    Max angular momentum: 4

  ==> DFJKGrad: Density-Fitted SCF Gradients <==

    Gradient:                    1
    J tasked:                  Yes
    K tasked:                  Yes
    wK tasked:                  No
    OpenMP threads:             24
    Integrals threads:          24
    Memory [MiB]:           102996
    Schwarz Cutoff:          0E+00
    Fitting Condition:       1E-10

   => Auxiliary Basis Set <=

  Basis Set: (DEF2-TZVPPD AUX)
    Blend: DEF2-TZVPP-JKFIT
    Number of shells: 116
    Number of basis function: 528
    Number of Cartesian functions: 754
    Spherical Harmonics?: true
    Max angular momentum: 6

  ==> DFT Potential <==

   => Composite Functional: MN15-D3BJ <= 

   MN15 Hybrid Meta-GGA Exchange-Correlation Functional

    H. S. Yu, X. He, S. L. Li, and D. G. Truhlar, Chem. Sci. 7, 5032-5051, 2016


    Deriv               =              1
    GGA                 =           TRUE
    Meta                =           TRUE

    Exchange Hybrid     =           TRUE
    MP2 Hybrid          =          FALSE

   => Exchange Functionals <=

    1.0000   XC_HYB_MGGA_X_MN15

   => Exact (HF) Exchange <=

    0.4400               HF 

   => Correlation Functionals <=

    1.0000   XC_MGGA_C_MN15

   => Molecular Quadrature <=

    Radial Scheme          =       TREUTLER
    Pruning Scheme         =           FLAT
    Nuclear Scheme         =       TREUTLER

    BS radius alpha        =              1
    Pruning alpha          =              1
    Radial Points          =             75
    Spherical Points       =            302
    Total Points           =          45300
    Total Blocks           =            426
    Max Points             =            256
    Max Functions          =            129


  -Total Gradient:
     Atom            X                  Y                   Z
    ------   -----------------  -----------------  -----------------
       1       -0.000000000000     0.000000000000    -0.000063182621
       2       -0.000000000000     0.000000000000     0.000063182621


*** tstop() called on bp1-compute00070.data.bp.acrc.priv at Fri Oct 29 08:44:09 2021
Module time:
	user time   =      37.59 seconds =       0.63 minutes
	system time =       2.72 seconds =       0.05 minutes
	total time  =          5 seconds =       0.08 minutes
Total time:
	user time   =     284.93 seconds =       4.75 minutes
	system time =      24.62 seconds =       0.41 minutes
	total time  =         27 seconds =       0.45 minutes

			-----------------------------------------
			 OPTKING 2.0: for geometry optimizations 
			  - R.A. King,  Bethel University        
			-----------------------------------------
	At level 1: Red. Int., RFO, no backsteps, dynamic trust

	Previous internal coordinate definitions found.
	---Fragment 1 Geometry and Gradient---
	 CU          0.0000000000        0.0000000000        2.1495599288
	 CU          0.0000000000        0.0000000000       -2.1495599288
	            -0.0000000000        0.0000000000       -0.0000631826
	            -0.0000000000        0.0000000000        0.0000631826

	---Fragment 1 Intrafragment Coordinates---
	 - Coordinate -           - BOHR/RAD -       - ANG/DEG -
	 R(1,2)           =         4.299120	       2.274996

	Current energy   :     -3281.5715916284

	Energy change for the previous step:
		Projected    :         0.0000157216
		Actual       :        -0.0000019668

	Performing BFGS update.
	Previous computed or guess Hessian on step 1.
	Steps to be used in Hessian update: 3 2
	Taking RFO optimization step.
	Going to follow RFO solution 1.
	Using RFO vector 1.
	Norm of target step-size    0.00077
	Projected energy change by RFO approximation:         0.0000002487

	Back-transformation to cartesian coordinates...
	Successfully converged to displaced geometry.

	--- Internal Coordinate Step in ANG or DEG, aJ/ANG or AJ/DEG ---
	 ---------------------------------------------------------------------------
	   Coordinate                Previous        Force       Change         New 
	   ----------                --------       ------       ------       ------
	    1 R(1,2)          =      2.274996     0.000521     0.000408     2.275404
	 ---------------------------------------------------------------------------
	Successfully symmetrized geometry.

  ==> Convergence Check <==

  Measures of convergence in internal coordinates in au.
  Criteria marked as inactive (o), active & met (*), and active & unmet ( ).
  ---------------------------------------------------------------------------------------------
   Step     Total Energy     Delta E     MAX Force     RMS Force      MAX Disp      RMS Disp   
  ---------------------------------------------------------------------------------------------
    Convergence Criteria    1.00e-06 *    3.00e-04 *             o    1.20e-03 *             o
  ---------------------------------------------------------------------------------------------
      4   -3281.57159163   -1.97e-06      6.32e-05 *    6.32e-05 o    7.71e-04 *    7.71e-04 o  ~
  ---------------------------------------------------------------------------------------------


  **** Optimization is complete! (in 4 steps) ****

  ==> Optimization Summary <==

  Measures of convergence in internal coordinates in au.
  --------------------------------------------------------------------------------------------------------------- ~
   Step         Total Energy             Delta E       MAX Force       RMS Force        MAX Disp        RMS Disp  ~
  --------------------------------------------------------------------------------------------------------------- ~
      1   -3281.571045285113  -3281.571045285113      0.00992027      0.00992027      0.05417449      0.05417449  ~
      2   -3281.571445862789     -0.000400577677      0.00491587      0.00491587      0.05306632      0.05306632  ~
      3   -3281.571589661603     -0.000143798813      0.00054001      0.00054001      0.00617348      0.00617348  ~
      4   -3281.571591628393     -0.000001966790      0.00006318      0.00006318      0.00077131      0.00077131  ~
  --------------------------------------------------------------------------------------------------------------- ~

	Writing optimization data to binary file.
	Final energy is  -3281.5715916283925
	Final (previous) structure:
	Cartesian Geometry (in Angstrom)
	   CU     0.0000000000   0.0000000000   1.1374981228
	   CU     0.0000000000   0.0000000000  -1.1374981228
	Saving final (previous) structure.
			--------------------------
			 OPTKING Finished Execution 
			--------------------------

    Final optimized geometry and variables:
    Molecular point group: d2h
    Full point group: D_inf_h

    Geometry (in Angstrom), charge = 0, multiplicity = 1:

    CU           0.000000000000     0.000000000000     1.137498127273
    CU           0.000000000000     0.000000000000    -1.137498127273

	Removing binary optimization data file.
	Cleaning optimization helper files.
gradient() will perform analytic gradient computation.

*** tstart() called on bp1-compute00070.data.bp.acrc.priv
*** at Fri Oct 29 08:44:09 2021

   => Loading Basis Set <=

    Name: DEF2-TZVPPD
    Role: ORBITAL
    Keyword: BASIS
    atoms 1-2 entry CU         line  1290 file /work/zw18965/.conda/envs/p4env/share/psi4/basis/def2-tzvppd.gbs 


         ---------------------------------------------------------
                                   SCF
               by Justin Turney, Rob Parrish, Andy Simmonett
                          and Daniel G. A. Smith
                              RKS Reference
                       24 Threads, 137329 MiB Core
         ---------------------------------------------------------

  ==> Geometry <==

    Molecular point group: d2h
    Full point group: D_inf_h

    Geometry (in Angstrom), charge = 0, multiplicity = 1:

       Center              X                  Y                   Z               Mass       
    ------------   -----------------  -----------------  -----------------  -----------------
         CU           0.000000000000     0.000000000000     1.137498127273    62.929597720000
         CU           0.000000000000     0.000000000000    -1.137498127273    62.929597720000

  Running in d2h symmetry.

  Rotational constants: A = ************  B =      0.10352  C =      0.10352 [cm^-1]
  Rotational constants: A = ************  B =   3103.35078  C =   3103.35078 [MHz]
  Nuclear repulsion =  195.621435984442826

  Charge       = 0
  Multiplicity = 1
  Electrons    = 58
  Nalpha       = 29
  Nbeta        = 29

  ==> Algorithm <==

  SCF Algorithm Type is DF.
  DIIS enabled.
  MOM disabled.
  Fractional occupation disabled.
  Guess Type is SAD.
  Energy threshold   = 1.00e-08
  Density threshold  = 1.00e-08
  Integral threshold = 0.00e+00

  ==> Primary Basis <==

  Basis Set: DEF2-TZVPPD
    Blend: DEF2-TZVPPD
    Number of shells: 38
    Number of basis function: 134
    Number of Cartesian functions: 166
    Spherical Harmonics?: true
    Max angular momentum: 4

  ==> DFT Potential <==

   => Composite Functional: MN15-D3BJ <= 

   MN15 Hybrid Meta-GGA Exchange-Correlation Functional

    H. S. Yu, X. He, S. L. Li, and D. G. Truhlar, Chem. Sci. 7, 5032-5051, 2016


[...]

    BS radius alpha        =              1
    Pruning alpha          =              1
    Radial Points          =             75
    Spherical Points       =            302
    Total Points           =          45300
    Total Blocks           =            426
    Max Points             =            256
    Max Functions          =            129

   => MN15-D3(BJ): Empirical Dispersion <=

    Grimme's -D3 (BJ-damping) Dispersion Correction
    Grimme S.; Ehrlich S.; Goerigk L. (2011), J. Comput. Chem., 32: 1456
    Parametrisation from:    L. Goerigk, A. Hansen, C. Bauer, S. Ehrlich, A. Najibi, S. Grimme, Phys. Chem. Chem. Phys. 19, 32184-32215, 2017

        s6 =       1.000000
        s8 =       2.097100
        a1 =       0.786200
        a2 =       7.592300

   => Loading Basis Set <=

    Name: (DEF2-TZVPPD AUX)
    Role: JKFIT
    Keyword: DF_BASIS_SCF
    atoms 1-2 entry CU         line  2361 file /work/zw18965/.conda/envs/p4env/share/psi4/basis/def2-tzvpp-jkfit.gbs 

  ==> Pre-Iterations <==

   -------------------------------------------------------
    Irrep   Nso     Nmo     Nalpha   Nbeta   Ndocc  Nsocc
   -------------------------------------------------------
     Ag        27      27       0       0       0       0
     B1g        8       8       0       0       0       0
     B2g       16      16       0       0       0       0
     B3g       16      16       0       0       0       0
     Au         8       8       0       0       0       0
     B1u       27      27       0       0       0       0
     B2u       16      16       0       0       0       0
     B3u       16      16       0       0       0       0
   -------------------------------------------------------
    Total     134     134      29      29      29       0
   -------------------------------------------------------

  ==> Integral Setup <==

  DFHelper Memory: AOs need 0.077 GiB; user supplied 100.270 GiB. Using in-core AOs.

  ==> MemDFJK: Density-Fitted J/K Matrices <==

    J tasked:                   Yes
    K tasked:                   Yes
    wK tasked:                   No
    OpenMP threads:              24
    Memory [MiB]:            102676
    Algorithm:                 Core
    Schwarz Cutoff:           1E-12
    Mask sparsity (%):       5.4355
    Fitting Condition:        1E-10

   => Auxiliary Basis Set <=

  Basis Set: (DEF2-TZVPPD AUX)
    Blend: DEF2-TZVPP-JKFIT
    Number of shells: 116
    Number of basis function: 528
    Number of Cartesian functions: 754
    Spherical Harmonics?: true
    Max angular momentum: 6

  Cached 100.0% of DFT collocation blocks in 0.313 [GiB].

  Minimum eigenvalue in the overlap matrix is 8.5128592890E-04.
  Using Symmetric Orthogonalization.

  SCF Guess: Superposition of Atomic Densities via on-the-fly atomic UHF.

  ==> Iterations <==

                           Total Energy        Delta E     RMS |[F,P]|

   @DF-RKS iter SAD: -3276.43823047101705   -3.27644e+03   0.00000e+00 
    Occupation by irrep:
             Ag   B1g   B2g   B3g    Au   B1u   B2u   B3u 
    DOCC [     8,    1,    3,    3,    0,    7,    4,    3 ]

   @DF-RKS iter   1: -3275.59433413621446    8.43896e-01   1.19161e-01 DIIS
    Occupation by irrep:
             Ag   B1g   B2g   B3g    Au   B1u   B2u   B3u 
    DOCC [     8,    1,    3,    3,    1,    7,    3,    3 ]

   @DF-RKS iter   2: -3190.48217156715327    8.51122e+01   2.65592e-01 DIIS
   @DF-RKS iter   3: -3279.68919524743296   -8.92070e+01   5.67754e-02 DIIS
   @DF-RKS iter   4: -3279.10025510069545    5.88940e-01   6.68146e-02 DIIS
   @DF-RKS iter   5: -3281.53505983322020   -2.43480e+00   9.75377e-03 DIIS
   @DF-RKS iter   6: -3281.56036218002464   -2.53023e-02   5.04360e-03 DIIS
   @DF-RKS iter   7: -3281.57053476015426   -1.01726e-02   1.49190e-03 DIIS
   @DF-RKS iter   8: -3281.57158438307079   -1.04962e-03   1.05103e-04 DIIS
   @DF-RKS iter   9: -3281.57159036110352   -5.97803e-06   4.40828e-05 DIIS
   @DF-RKS iter  10: -3281.57159146378672   -1.10268e-06   1.00366e-05 DIIS
   @DF-RKS iter  11: -3281.57159163770393   -1.73917e-07   2.37574e-06 DIIS
   @DF-RKS iter  12: -3281.57159166483962   -2.71357e-08   9.76768e-07 DIIS
   @DF-RKS iter  13: -3281.57159166723477   -2.39515e-09   1.99308e-07 DIIS
   @DF-RKS iter  14: -3281.57159166729207   -5.72982e-11   2.46177e-08 DIIS
   @DF-RKS iter  15: -3281.57159166729389   -1.81899e-12   2.44467e-09 DIIS
  Energy and wave function converged.


  ==> Post-Iterations <==

    Orbital Energies [Eh]
    ---------------------

    Doubly Occupied:                                                      

       1B1u -320.684913     1Ag  -320.684899     2B1u  -37.854427  
       2Ag   -37.854211     3B1u  -33.706348     3Ag   -33.706337  
       1B2g  -33.703740     1B3g  -33.703740     1B3u  -33.703731  
       1B2u  -33.703731     4Ag    -4.074867     4B1u   -4.074254  
       5Ag    -2.748487     2B2u   -2.743899     2B3u   -2.743899  
       2B3g   -2.743478     2B2g   -2.743478     5B1u   -2.743470  
       6Ag    -0.342094     3B2u   -0.331202     3B3u   -0.331202  
       7Ag    -0.316383     1B1g   -0.316380     6B1u   -0.309100  
       1Au    -0.309097     3B3g   -0.298324     3B2g   -0.298324  
       7B1u   -0.294081     8Ag    -0.235393  

    Virtual:                                                              

       8B1u   -0.063262     4B3u   -0.006925     4B2u   -0.006925  
       9Ag     0.034301     4B3g    0.073451     4B2g    0.073451  
       9B1u    0.084885    10Ag     0.140353    11Ag     0.158982  
       5B3u    0.160002     5B2u    0.160002    12Ag     0.195614  
       2B1g    0.195617     5B3g    0.203646     5B2g    0.203646  
      10B1u    0.226708    11B1u    0.262775     6B2u    0.265422  
       6B3u    0.265422    12B1u    0.281828     2Au     0.281830  
      13Ag     0.370364     6B2g    0.384392     6B3g    0.384392  
      13B1u    0.549416    14Ag     0.677122     7B3u    0.699326  
       7B2u    0.699326     7B2g    0.779530     7B3g    0.779530  
      14B1u    0.833854     8B2u    0.879325     8B3u    0.879325  
       3B1g    0.917181    15Ag     0.917218     3Au     0.990297  
      15B1u    0.990334    16Ag     1.012287     8B2g    1.123293  
       8B3g    1.123293    16B1u    1.323198     9B2u    2.974722  
       9B3u    2.974722    17Ag     3.020024    17B1u    3.046144  
       9B3g    3.058671     9B2g    3.058671    18Ag     3.088226  
      10B3u    3.396419    10B2u    3.396419     4B1g    3.420417  
      19Ag     3.420455    20Ag     3.427702    11B2u    3.430414  
      11B3u    3.430414     4Au     3.430504    18B1u    3.430549  
      10B2g    3.430764    10B3g    3.430764    11B2g    3.434844  
      11B3g    3.434844    19B1u    3.448711    20B1u    3.539507  
       5B1g    3.615598    21Ag     3.615614     5Au     3.658849  
      21B1u    3.658863    12B2u    3.670929    12B3u    3.670929  
      12B2g    3.756273    12B3g    3.756273    22Ag     3.917116  
      22B1u    4.060935    23Ag    12.718531    13B2u   12.718654  
      13B3u   12.718654    13B3g   12.719063    13B2g   12.719063  
       6B1g   12.719430    24Ag    12.719436     6Au    12.719449  
      23B1u   12.719456    24B1u   12.720237    14B3u   12.720810  
      14B2u   12.720810    14B2g   12.720810    14B3g   12.720810  
      25B1u   12.722097    25Ag    12.722098     7Au    12.722247  
       7B1g   12.722248    26Ag    12.877483    15B2u   12.877742  
      15B3u   12.877742     8B1g   12.879089    27Ag    12.879221  
      16B3u   12.879960    16B2u   12.879960    15B3g   12.880054  
      15B2g   12.880054     8Au    12.881284    26B1u   12.881416  
      16B3g   12.898142    16B2g   12.898142    27B1u   12.992679  

    Final Occupation by Irrep:
             Ag   B1g   B2g   B3g    Au   B1u   B2u   B3u 
    DOCC [     8,    1,    3,    3,    1,    7,    3,    3 ]

  @DF-RKS Final Energy: -3281.57159166729389

   => Energetics <=

    Nuclear Repulsion Energy =            195.5808847221566396
    One-Electron Energy =               -4966.1801620725709654
    Two-Electron Energy =                1566.2273552107690193
    DFT Exchange-Correlation Energy =     -77.1996379376488164
    Empirical Dispersion Energy =          -0.0000315900000000
    VV10 Nonlocal Energy =                  0.0000000000000000
    Total Energy =                      -3281.5715916672938874

Computation Completed


Properties will be evaluated at   0.000000,   0.000000,   0.000000 [a0]

Properties computed using the SCF density matrix

  Nuclear Dipole Moment: [e a0]
     X:     0.0000      Y:     0.0000      Z:    -0.0000

  Electronic Dipole Moment: [e a0]
     X:     0.0000      Y:     0.0000      Z:     0.0000

  Dipole Moment: [e a0]
     X:     0.0000      Y:     0.0000      Z:    -0.0000     Total:     0.0000

  Dipole Moment: [D]
     X:     0.0000      Y:     0.0000      Z:    -0.0000     Total:     0.0000


*** tstop() called on bp1-compute00070.data.bp.acrc.priv at Fri Oct 29 08:44:32 2021
Module time:
	user time   =      40.19 seconds =       0.67 minutes
	system time =       1.43 seconds =       0.02 minutes
	total time  =          2 seconds =       0.03 minutes
Total time:
	user time   =     567.18 seconds =       9.45 minutes
	system time =      39.03 seconds =       0.65 minutes
	total time  =         50 seconds =       0.83 minutes

*** tstart() called on bp1-compute00070.data.bp.acrc.priv
*** at Fri Oct 29 08:44:32 2021


         ------------------------------------------------------------
                                   SCF GRAD                          
                          Rob Parrish, Justin Turney,                
                       Andy Simmonett, and Alex Sokolov              
         ------------------------------------------------------------

  ==> Geometry <==

    Molecular point group: d2h
    Full point group: D_inf_h

    Geometry (in Angstrom), charge = 0, multiplicity = 1:

       Center              X                  Y                   Z               Mass       
    ------------   -----------------  -----------------  -----------------  -----------------
         CU           0.000000000000     0.000000000000     1.137733973352    62.929597720000
         CU           0.000000000000     0.000000000000    -1.137733973352    62.929597720000

  Nuclear repulsion =  195.580884722156640

  ==> Basis Set <==

  Basis Set: DEF2-TZVPPD
    Blend: DEF2-TZVPPD
    Number of shells: 38
    Number of basis function: 134
    Number of Cartesian functions: 166
    Spherical Harmonics?: true
    Max angular momentum: 4

  ==> DFJKGrad: Density-Fitted SCF Gradients <==

    Gradient:                    1
    J tasked:                  Yes
    K tasked:                  Yes
    wK tasked:                  No
    OpenMP threads:             24
    Integrals threads:          24
    Memory [MiB]:           102996
    Schwarz Cutoff:          0E+00
    Fitting Condition:       1E-10

   => Auxiliary Basis Set <=

  Basis Set: (DEF2-TZVPPD AUX)
    Blend: DEF2-TZVPP-JKFIT
    Number of shells: 116
    Number of basis function: 528
    Number of Cartesian functions: 754
    Spherical Harmonics?: true
    Max angular momentum: 6

  ==> DFT Potential <==

   => Composite Functional: MN15-D3BJ <= 

   MN15 Hybrid Meta-GGA Exchange-Correlation Functional

    H. S. Yu, X. He, S. L. Li, and D. G. Truhlar, Chem. Sci. 7, 5032-5051, 2016


    Deriv               =              1
    GGA                 =           TRUE
    Meta                =           TRUE

    Exchange Hybrid     =           TRUE
    MP2 Hybrid          =          FALSE

   => Exchange Functionals <=

    1.0000   XC_HYB_MGGA_X_MN15

   => Exact (HF) Exchange <=

    0.4400               HF 

   => Correlation Functionals <=

    1.0000   XC_MGGA_C_MN15

   => Molecular Quadrature <=

    Radial Scheme          =       TREUTLER
    Pruning Scheme         =           FLAT
    Nuclear Scheme         =       TREUTLER

    BS radius alpha        =              1
    Pruning alpha          =              1
    Radial Points          =             75
    Spherical Points       =            302
    Total Points           =          45300
    Total Blocks           =            426
    Max Points             =            256
    Max Functions          =            129


  -Total Gradient:
     Atom            X                  Y                   Z
    ------   -----------------  -----------------  -----------------
       1        0.000000000000     0.000000000000     0.000005106172
       2        0.000000000000     0.000000000000    -0.000005106172


*** tstop() called on bp1-compute00070.data.bp.acrc.priv at Fri Oct 29 08:44:37 2021
Module time:
	user time   =      37.92 seconds =       0.63 minutes
	system time =       2.79 seconds =       0.05 minutes
	total time  =          5 seconds =       0.08 minutes
Total time:
	user time   =     606.13 seconds =      10.10 minutes
	system time =      41.89 seconds =       0.70 minutes
	total time  =         55 seconds =       0.92 minutes

         ----------------------------------------------------------
                                   FINDIF
                     R. A. King and Jonathon Misiewicz
         ---------------------------------------------------------

  Computing second-derivative from gradients using projected, 
  symmetry-adapted, cartesian coordinates.

  3 gradients passed in, including the reference geometry.
  Generating complete list of displacements from unique ones.


-------------------------------------------------------------


  ==> Harmonic Vibrational Analysis <==

  non-mass-weighted Hessian:       Symmetric? True   Hermitian? True   Lin Dep Dim?  5 (0)
  projection of translations (True) and rotations (True) removed 5 degrees of freedom (5)
  total projector:                 Symmetric? True   Hermitian? True   Lin Dep Dim?  5 (5)
  mass-weighted Hessian:           Symmetric? True   Hermitian? True   Lin Dep Dim?  5 (0)
  pre-proj  low-frequency mode:    0.0000  [cm^-1]
  pre-proj  low-frequency mode:    0.0000  [cm^-1]
  pre-proj  low-frequency mode:    0.0000  [cm^-1]
  pre-proj  low-frequency mode:    0.0000  [cm^-1]
  pre-proj  low-frequency mode:    0.0000  [cm^-1]
  pre-proj  all modes:['0.0000' '0.0000' '0.0000' '0.0000' '0.0000' '253.8040']
  projected mass-weighted Hessian: Symmetric? True   Hermitian? True   Lin Dep Dim?  5 (5)
  post-proj low-frequency mode:    0.0000  [cm^-1] (TR)
  post-proj low-frequency mode:    0.0000  [cm^-1] (TR)
  post-proj low-frequency mode:    0.0000  [cm^-1] (TR)
  post-proj low-frequency mode:    0.0000  [cm^-1] (TR)
  post-proj low-frequency mode:    0.0000  [cm^-1] (TR)
  post-proj  all modes:['0.0000' '0.0000' '0.0000' '0.0000' '0.0000' '253.8040']

  Vibration                       6           
  Freq [cm^-1]                 253.8040       
  Irrep                           Ag          
  Reduced mass [u]             62.9296        
  Force const [mDyne/A]         2.3884        
  Turning point v=0 [a0]        0.0868        
  RMS dev v=0 [a0 u^1/2]        0.4870        
  Char temp [K]                365.1674       
  ----------------------------------------------------------------------------------
      1   CU               0.00  0.00  0.71   
      2   CU               0.00  0.00 -0.71   

  ==> Thermochemistry Components <==

  Entropy, S
    Electronic S            0.000 [cal/(mol K)]        0.000 [J/(mol K)]       0.00000000 [mEh/K] (multiplicity = 1)
    Translational S        40.404 [cal/(mol K)]      169.048 [J/(mol K)]       0.06438717 [mEh/K] (mol. weight = 125.8592 [u], P = 101325.00 [Pa])
    Rotational S           15.716 [cal/(mol K)]       65.756 [J/(mol K)]       0.02504529 [mEh/K] (symmetry no. = 2)
    Vibrational S           1.704 [cal/(mol K)]        7.130 [J/(mol K)]       0.00271551 [mEh/K]
  Total S                  57.824 [cal/(mol K)]      241.934 [J/(mol K)]       0.09214796 [mEh/K]
  Correction S              0.000 [cal/(mol K)]        0.000 [J/(mol K)]       0.00000000 [mEh/K]

  Constant volume heat capacity, Cv
    Electronic Cv           0.000 [cal/(mol K)]        0.000 [J/(mol K)]       0.00000000 [mEh/K]
    Translational Cv        2.981 [cal/(mol K)]       12.472 [J/(mol K)]       0.00475022 [mEh/K]
    Rotational Cv           1.987 [cal/(mol K)]        8.314 [J/(mol K)]       0.00316681 [mEh/K]
    Vibrational Cv          1.756 [cal/(mol K)]        7.349 [J/(mol K)]       0.00279895 [mEh/K]
  Total Cv                  6.724 [cal/(mol K)]       28.135 [J/(mol K)]       0.01071598 [mEh/K]
  Correction Cv             0.000 [cal/(mol K)]        0.000 [J/(mol K)]       0.00000000 [mEh/K]

  Constant pressure heat capacity, Cp
    Electronic Cp           0.000 [cal/(mol K)]        0.000 [J/(mol K)]       0.00000000 [mEh/K]
    Translational Cp        4.968 [cal/(mol K)]       20.786 [J/(mol K)]       0.00791703 [mEh/K]
    Rotational Cp           1.987 [cal/(mol K)]        8.314 [J/(mol K)]       0.00316681 [mEh/K]
    Vibrational Cp          1.756 [cal/(mol K)]        7.349 [J/(mol K)]       0.00279895 [mEh/K]
  Total Cp                  8.712 [cal/(mol K)]       36.449 [J/(mol K)]       0.01388279 [mEh/K]
  Correction Cp             0.000 [cal/(mol K)]        0.000 [J/(mol K)]       0.00000000 [mEh/K]

  ==> Thermochemistry Energy Analysis <==

  Raw electronic energy, E0
  Total E0, Electronic energy at well bottom at 0 [K]                -3281.57159163 [Eh]

  Zero-point energy, ZPE_vib = Sum_i nu_i / 2
    Electronic ZPE          0.000 [kcal/mol]        0.000 [kJ/mol]       0.00000000 [Eh]
    Translational ZPE       0.000 [kcal/mol]        0.000 [kJ/mol]       0.00000000 [Eh]
    Rotational ZPE          0.000 [kcal/mol]        0.000 [kJ/mol]       0.00000000 [Eh]
    Vibrational ZPE         0.363 [kcal/mol]        1.518 [kJ/mol]       0.00057821 [Eh]         126.902 [cm^-1]
  Correction ZPE            0.363 [kcal/mol]        1.518 [kJ/mol]       0.00057821 [Eh]         126.902 [cm^-1]
  Total ZPE, Electronic energy at 0 [K]                              -3281.57101342 [Eh]

  Thermal Energy, E (includes ZPE)
    Electronic E            0.000 [kcal/mol]        0.000 [kJ/mol]       0.00000000 [Eh]
    Translational E         0.889 [kcal/mol]        3.718 [kJ/mol]       0.00141628 [Eh]
    Rotational E            0.592 [kcal/mol]        2.479 [kJ/mol]       0.00094418 [Eh]
    Vibrational E           0.665 [kcal/mol]        2.781 [kJ/mol]       0.00105936 [Eh]
  Correction E              2.146 [kcal/mol]        8.979 [kJ/mol]       0.00341983 [Eh]
  Total E, Electronic energy at  298.15 [K]                          -3281.56817180 [Eh]

  Enthalpy, H_trans = E_trans + k_B * T
    Electronic H            0.000 [kcal/mol]        0.000 [kJ/mol]       0.00000000 [Eh]
    Translational H         1.481 [kcal/mol]        6.197 [kJ/mol]       0.00236046 [Eh]
    Rotational H            0.592 [kcal/mol]        2.479 [kJ/mol]       0.00094418 [Eh]
    Vibrational H           0.665 [kcal/mol]        2.781 [kJ/mol]       0.00105936 [Eh]
  Correction H              2.738 [kcal/mol]       11.458 [kJ/mol]       0.00436401 [Eh]
  Total H, Enthalpy at  298.15 [K]                                   -3281.56722762 [Eh]

  Gibbs free energy, G = H - T * S
    Electronic G            0.000 [kcal/mol]        0.000 [kJ/mol]       0.00000000 [Eh]
    Translational G       -10.565 [kcal/mol]      -44.204 [kJ/mol]      -0.01683657 [Eh]
    Rotational G           -4.093 [kcal/mol]      -17.126 [kJ/mol]      -0.00652307 [Eh]
    Vibrational G           0.157 [kcal/mol]        0.656 [kJ/mol]       0.00024974 [Eh]
  Correction G            -14.502 [kcal/mol]      -60.675 [kJ/mol]      -0.02310990 [Eh]
  Total G, Free enthalpy at  298.15 [K]                              -3281.59470153 [Eh]

    Psi4 stopped on: Friday, 29 October 2021 08:44AM
    Psi4 wall time for execution: 0:00:55.19

*** Psi4 exiting successfully. Buy a developer a beer!
