Optimizer: Optimization complete!
 6 displacements needed.
 1 2 3 4 5 6
Warning: thermodynamics relations excluded imaginary frequencies: ['113.7195i']
Warning: used thermodynamics relations inappropriate for low-frequency modes: ['174.1228' '256.2753']
At level 1: Red. Int., RFO, no backsteps, dynamic trust
At level 1: Red. Int., RFO, no backsteps, dynamic trust
At level 1: Red. Int., RFO, no backsteps, dynamic trust
At level 1: Red. Int., RFO, no backsteps, dynamic trust
At level 1: Red. Int., RFO, no backsteps, dynamic trust
At level 1: Red. Int., RFO, no backsteps, dynamic trust
,
    F. A. Evangelista, J. M. Turney, T. D. Crawford, and C. D. Sherrill,
    J. Chem. Theory Comput. 13(7) pp 3185--3197 (2017).
    (doi: 10.1021/acs.jctc.7b00174)


                         Additional Contributions by
    P. Kraus, H. Kruse, M. H. Lechner, M. C. Schieber, R. A. Shaw,
    A. Alenaizan, R. Galvelis, Z. L. Glick, S. Lehtola, and J. P. Misiewicz

    -----------------------------------------------------------------------


    Psi4 started on: Friday, 29 October 2021 08:44AM

    Process ID: 185913
    Host:       bp1-compute00145.data.bp.acrc.priv
    PSIDATADIR: /work/zw18965/.conda/envs/p4env/share/psi4
    Memory:     500.0 MiB
    Threads:    24
    
  ==> Input File <==

--------------------------------------------------------------------------
memory 144 GB

molecule {
0 2
Cu       0.000000    1.346828   -0.000000 
Cu       1.166387   -0.673414   -0.000000 
Cu      -1.166387   -0.673414   -0.000000 
 }

set reference uks
set dynamic_level 1
set basis Def2-TZVPPD

optimize("MN15-D3BJ")
frequencies("MN15-D3BJ")
--------------------------------------------------------------------------

  Memory set to 134.110 GiB by Python driver.
gradient() will perform analytic gradient computation.

*** tstart() called on bp1-compute00145.data.bp.acrc.priv
*** at Fri Oct 29 08:44:16 2021

   => Loading Basis Set <=

    Name: DEF2-TZVPPD
    Role: ORBITAL
    Keyword: BASIS
    atoms 1-3 entry CU         line  1290 file /work/zw18965/.conda/envs/p4env/share/psi4/basis/def2-tzvppd.gbs 


         ---------------------------------------------------------
                                   SCF
               by Justin Turney, Rob Parrish, Andy Simmonett
                          and Daniel G. A. Smith
                              UKS Reference
                       24 Threads, 137329 MiB Core
         ---------------------------------------------------------

  ==> Geometry <==

    Molecular point group: c2v
    Full point group: C2v

    Geometry (in Angstrom), charge = 0, multiplicity = 2:

       Center              X                  Y                   Z               Mass       
    ------------   -----------------  -----------------  -----------------  -----------------
         CU           0.000000000000    -0.000000000000     1.346828000000    62.929597720000
         CU           1.166387000000     0.000000000000    -0.673414000000    62.929597720000
         CU          -1.166387000000    -0.000000000000    -0.673414000000    62.929597720000

  Running in c2v symmetry.

  Rotational constants: A =      0.09845  B =      0.09845  C =      0.04923 [cm^-1]
  Rotational constants: A =   2951.52800  B =   2951.52667  C =   1475.76367 [MHz]
  Nuclear repulsion =  572.328889239998603

  Charge       = 0
  Multiplicity = 2
  Electrons    = 87
  Nalpha       = 44
  Nbeta        = 43

  ==> Algorithm <==

  SCF Algorithm Type is DF.
  DIIS enabled.
  MOM disabled.
  Fractional occupation disabled.
  Guess Type is SAD.
  Energy threshold   = 1.00e-08
  Density threshold  = 1.00e-08
  Integral threshold = 0.00e+00

  ==> Primary Basis <==

  Basis Set: DEF2-TZVPPD
    Blend: DEF2-TZVPPD
    Number of shells: 57
    Number of basis function: 201
    Number of Cartesian functions: 249
    Spherical Harmonics?: true
    Max angular momentum: 4

  ==> DFT Potential <==

   => Composite Functional: MN15-D3BJ <= 

   MN15 Hybrid Meta-GGA Exchange-Correlation Functional

    H. S. Yu, X. He, S. L. Li, and D. G. Truhlar, Chem. Sci. 7, 5032-5051, 2016


    Deriv               =              1
    GGA                 =           TRUE
    Meta                =           TRUE

    Exchange Hybrid     =           TRUE
    MP2 Hybrid          =          FALSE

   => Exchange Functionals <=

    1.0000   XC_HYB_MGGA_X_MN15

   => Exact (HF) Exchange <=

    0.4400               HF 

   => Correlation Functionals <=

    1.0000   XC_MGGA_C_MN15

   => Molecular Quadrature <=

    Radial Scheme          =       TREUTLER
    Pruning Scheme         =           FLAT
    Nuclear Scheme         =       TREUTLER

    BS radius alpha        =              1
    Pruning alpha          =              1
    Radial Points          =             75
    Spherical Points       =            302
    Total Points           =          67950
    Total Blocks           =            595
    Max Points             =            254
    Max Functions          =            191

   => MN15-D3(BJ): Empirical Dispersion <=

    Grimme's -D3 (BJ-damping) Dispersion Correction
    Grimme S.; Ehrlich S.; Goerigk L. (2011), J. Comput. Chem., 32: 1456
    Parametrisation from:    L. Goerigk, A. Hansen, C. Bauer, S. Ehrlich, A. Najibi, S. Grimme, Phys. Chem. Chem. Phys. 19, 32184-32215, 2017

        s6 =       1.000000
        s8 =       2.097100
        a1 =       0.786200
        a2 =       7.592300

   => Loading Basis Set <=

    Name: (DEF2-TZVPPD AUX)
    Role: JKFIT
    Keyword: DF_BASIS_SCF
    atoms 1-3 entry CU         line  2361 file /work/zw18965/.conda/envs/p4env/share/psi4/basis/def2-tzvpp-jkfit.gbs 

  ==> Pre-Iterations <==

   -------------------------------------------------------
    Irrep   Nso     Nmo     Nalpha   Nbeta   Ndocc  Nsocc
   -------------------------------------------------------
     A1        70      70       0       0       0       0
     A2        32      32       0       0       0       0
     B1        59      59       0       0       0       0
     B2        40      40       0       0       0       0
   -------------------------------------------------------
    Total     201     201      44      43      43       1
   -------------------------------------------------------

  ==> Integral Setup <==

  DFHelper Memory: AOs need 0.246 GiB; user supplied 99.940 GiB. Using in-core AOs.

  ==> MemDFJK: Density-Fitted J/K Matrices <==

    J tasked:                   Yes
    K tasked:                   Yes
    wK tasked:                   No
    OpenMP threads:              24
    Memory [MiB]:            102338
    Algorithm:                 Core
    Schwarz Cutoff:           1E-12
    Mask sparsity (%):       6.8810
    Fitting Condition:        1E-10

   => Auxiliary Basis Set <=

  Basis Set: (DEF2-TZVPPD AUX)
    Blend: DEF2-TZVPP-JKFIT
    Number of shells: 174
    Number of basis function: 792
    Number of Cartesian functions: 1131
    Spherical Harmonics?: true
    Max angular momentum: 6

  Cached 100.0% of DFT collocation blocks in 0.643 [GiB].

  Minimum eigenvalue in the overlap matrix is 7.6310552917E-04.
  Using Symmetric Orthogonalization.

  SCF Guess: Superposition of Atomic Densities via on-the-fly atomic UHF.

  ==> Iterations <==

                           Total Energy        Delta E     RMS |[F,P]|

   @DF-UKS iter SAD: -4915.41396535407148   -4.91541e+03   0.00000e+00 
    Occupation by irrep:
             A1    A2    B1    B2 
    DOCC [    19,    3,   14,    7 ]
    SOCC [     1,    0,    0,    0 ]

   @DF-UKS iter   1: -4913.47779995822930    1.93617e+00   7.05999e-02 DIIS
    Occupation by irrep:
             A1    A2    B1    B2 
    DOCC [    18,    5,   13,    7 ]
    SOCC [     1,    0,    0,    0 ]

   @DF-UKS iter   2: -4774.31205025089002    1.39166e+02   1.61765e-01 DIIS
   @DF-UKS iter   3: -4919.77209456815217   -1.45460e+02   3.01364e-02 DIIS
   @DF-UKS iter   4: -4919.51480220582562    2.57292e-01   3.47194e-02 DIIS
   @DF-UKS iter   5: -4921.36417061154862   -1.84937e+00   2.20229e-02 DIIS
   @DF-UKS iter   6: -4922.32479682719531   -9.60626e-01   4.69136e-03 DIIS
   @DF-UKS iter   7: -4922.35304303921384   -2.82462e-02   2.17798e-03 DIIS
   @DF-UKS iter   8: -4922.36293256287627   -9.88952e-03   8.18867e-04 DIIS
   @DF-UKS iter   9: -4922.36456280705534   -1.63024e-03   2.31467e-04 DIIS
   @DF-UKS iter  10: -4922.36473176659092   -1.68960e-04   5.83484e-05 DIIS
   @DF-UKS iter  11: -4922.36475552447610   -2.37579e-05   1.84520e-05 DIIS
   @DF-UKS iter  12: -4922.36476275410314   -7.22963e-06   8.25043e-06 DIIS
   @DF-UKS iter  13: -4922.36476495599982   -2.20190e-06   3.03664e-06 DIIS
   @DF-UKS iter  14: -4922.36476516298808   -2.06988e-07   1.16756e-06 DIIS
   @DF-UKS iter  15: -4922.36476518709333   -2.41052e-08   3.77595e-07 DIIS
   @DF-UKS iter  16: -4922.36476519209373   -5.00040e-09   1.25896e-07 DIIS
   @DF-UKS iter  17: -4922.36476519284679   -7.53062e-10   6.10361e-08 DIIS
   @DF-UKS iter  18: -4922.36476519290773   -6.09361e-11   2.66151e-08 DIIS
   @DF-UKS iter  19: -4922.36476519291864   -1.09139e-11   5.15502e-09 DIIS
  Energy and wave function converged.


  ==> Post-Iterations <==

   @Spin Contamination Metric:   1.795819064E-02
   @S^2 Expected:                7.500000000E-01
   @S^2 Observed:                7.679581906E-01
   @S   Expected:                5.000000000E-01
   @S   Observed:                5.000000000E-01

    Orbital Energies [Eh]
    ---------------------

    Alpha Occupied:                                                       

       1B1  -320.708628     1A1  -320.708617     2A1  -320.693657  
       2B1   -37.879233     3A1   -37.879071     4A1   -37.866713  
       3B1   -33.730730     5A1   -33.730717     4B1   -33.728550  
       6A1   -33.728540     1A2   -33.727756     1B2   -33.727748  
       7A1   -33.717054     5B1   -33.716854     2B2   -33.714184  
       8A1    -4.099194     6B1    -4.098718     9A1    -4.085405  
      10A1    -2.772473     7B1    -2.769709    11A1    -2.768935  
       3B2    -2.767627     2A2    -2.767304     8B1    -2.767191  
      12A1    -2.756138     9B1    -2.754471     4B2    -2.750963  
      13A1    -0.378363    14A1    -0.361627     5B2    -0.359774  
      10B1    -0.355900    15A1    -0.346886     6B2    -0.345054  
       3A2    -0.340442    11B1    -0.327104     4A2    -0.323255  
      12B1    -0.322484    16A1    -0.316240     5A2    -0.314517  
      17A1    -0.312590     7B2    -0.311839    13B1    -0.300265  
      18A1    -0.288532    19A1    -0.165886  

    Alpha Virtual:                                                        

      14B1    -0.086189     8B2    -0.034536    20A1    -0.007958  
      15B1     0.011505    21A1     0.024302     9B2     0.050727  
       6A2     0.063429    22A1     0.070907    16B1     0.074346  
      17B1     0.110106    23A1     0.135012    10B2     0.137777  
      24A1     0.143328    25A1     0.154878    18B1     0.156221  
       7A2     0.190961    11B2     0.194367    26A1     0.212567  
      27A1     0.228853    19B1     0.233209     8A2     0.236089  
      12B2     0.241653    20B1     0.244072    28A1     0.254601  
      21B1     0.255561    13B2     0.270025    22B1     0.325707  
      29A1     0.326019     9A2     0.350922    30A1     0.359270  
      23B1     0.380016    10A2     0.382285    31A1     0.383295  
      14B2     0.385795    24B1     0.489104    25B1     0.524007  
      32A1     0.525447    15B2     0.662579    33A1     0.667326  
      34A1     0.716968    26B1     0.719947    11A2     0.773980  
      16B2     0.777001    35A1     0.814716    27B1     0.832042  
      36A1     0.838447    17B2     0.847470    18B2     0.871499  
      12A2     0.875515    37A1     0.959042    28B1     0.968194  
      29B1     0.977468    38A1     0.978585    13A2     1.053608  
      30B1     1.063589    39A1     1.068640    14A2     1.107675  
      19B2     1.112493    31B1     1.275905    40A1     1.277136  
      32B1     1.296454    20B2     2.940261    41A1     3.012408  
      33B1     3.018097    15A2     3.041676    21B2     3.049234  
      34B1     3.055680    42A1     3.056163    43A1     3.064359  
      44A1     3.089554    35B1     3.174891    45A1     3.355043  
      22B2     3.377902    23B2     3.386245    16A2     3.387345  
      36B1     3.400833    46A1     3.402395    37B1     3.405361  
      24B2     3.406934    17A2     3.406977    47A1     3.408434  
      38B1     3.408806    18A2     3.409765    48A1     3.411199  
      19A2     3.416639    25B2     3.416837    39B1     3.421506  
      26B2     3.423113    49A1     3.449107    40B1     3.450366  
      50A1     3.453728    41B1     3.484459    42B1     3.533648  
      51A1     3.539072    27B2     3.622841    52A1     3.626798  
      20A2     3.628439    28B2     3.658605    43B1     3.675760  
      53A1     3.684809    21A2     3.701774    22A2     3.748652  
      29B2     3.755308    54A1     3.880650    44B1     3.882536  
      55A1     3.900731    45B1     3.946328    46B1     4.191184  
      56A1     4.193730    57A1    12.694554    47B1    12.694780  
      30B2    12.695050    23A2    12.695064    48B1    12.695426  
      58A1    12.695502    24A2    12.695829    31B2    12.695949  
      59A1    12.696783    49B1    12.696811    25A2    12.697105  
      50B1    12.697166    32B2    12.697257    60A1    12.697383  
      26A2    12.698806    33B2    12.698807    51B1    12.698834  
      61A1    12.698835    62A1    12.709516    52B1    12.710265  
      34B2    12.711456    27A2    12.711740    53B1    12.713228  
      63A1    12.713519    35B2    12.713698    64A1    12.714925  
      28A2    12.714942    36B2    12.854517    65A1    12.855901  
      37B2    12.856065    54B1    12.856139    29A2    12.856319  
      30A2    12.856830    66A1    12.857212    67A1    12.858388  
      55B1    12.858712    38B2    12.862146    31A2    12.867291  
      56B1    12.868272    39B2    12.870734    68A1    12.872367  
      57B1    12.873564    32A2    12.879009    69A1    12.879655  
      40B2    12.881441    58B1    12.947850    70A1    12.955543  
      59B1    12.957972  

    Beta Occupied:                                                        

       1B1  -320.708514     1A1  -320.708503     2A1  -320.693313  
       2B1   -37.879100     3A1   -37.878938     4A1   -37.866753  
       3B1   -33.730859     5A1   -33.730849     4B1   -33.728621  
       6A1   -33.728607     1A2   -33.727592     1B2   -33.727585  
       7A1   -33.718467     5B1   -33.716501     2B2   -33.713990  
       8A1    -4.098924     6B1    -4.098447     9A1    -4.084110  
      10A1    -2.772368     7B1    -2.768702    11A1    -2.768421  
       3B2    -2.767723     8B1    -2.767640     2A2    -2.767405  
       9B1    -2.754638    12A1    -2.754630     4B2    -2.751174  
      13A1    -0.376652    14A1    -0.360636     5B2    -0.359560  
      10B1    -0.353303    15A1    -0.345421     6B2    -0.344580  
       3A2    -0.339727    11B1    -0.327110     4A2    -0.323741  
      12B1    -0.321883    16A1    -0.315521     5A2    -0.313603  
       7B2    -0.309507    17A1    -0.308732    13B1    -0.296814  
      18A1    -0.279236  

    Beta Virtual:                                                         

      14B1    -0.077047    19A1    -0.054528     8B2    -0.026655  
      20A1     0.024976    15B1     0.047163    21A1     0.053332  
       6A2     0.070414    16B1     0.078309     9B2     0.085707  
      22A1     0.088837    17B1     0.131015    23A1     0.136849  
      10B2     0.145516    24A1     0.148111    18B1     0.163992  
      25A1     0.168318     7A2     0.186885    11B2     0.195763  
      26A1     0.227064    19B1     0.237091    20B1     0.243500  
      12B2     0.247111    27A1     0.249878     8A2     0.251032  
      21B1     0.261304    28A1     0.274046    13B2     0.279908  
      22B1     0.337418    29A1     0.339331     9A2     0.358820  
      30A1     0.364699    10A2     0.387230    23B1     0.391711  
      31A1     0.396383    14B2     0.400719    24B1     0.494479  
      25B1     0.520409    32A1     0.525383    15B2     0.657370  
      33A1     0.665835    34A1     0.720501    26B1     0.720648  
      11A2     0.769983    16B2     0.780308    35A1     0.823165  
      27B1     0.830548    36A1     0.844401    17B2     0.850405  
      18B2     0.878817    12A2     0.880765    37A1     0.960593  
      28B1     0.963905    29B1     0.984380    38A1     0.985454  
      13A2     1.061379    30B1     1.070245    39A1     1.077090  
      14A2     1.107520    19B2     1.114665    31B1     1.274768  
      40A1     1.278770    32B1     1.303201    20B2     2.941999  
      41A1     3.017278    33B1     3.022764    15A2     3.042297  
      21B2     3.055034    34B1     3.057456    42A1     3.060346  
      43A1     3.069682    44A1     3.092295    35B1     3.180890  
      45A1     3.360208    22B2     3.378411    23B2     3.392477  
      16A2     3.393542    36B1     3.403037    46A1     3.404812  
      17A2     3.408237    37B1     3.408715    24B2     3.408994  
      18A2     3.410587    47A1     3.410795    38B1     3.411378  
      48A1     3.415576    19A2     3.420592    25B2     3.421545  
      39B1     3.426009    26B2     3.428260    40B1     3.454251  
      49A1     3.455120    50A1     3.459663    41B1     3.488204  
      42B1     3.535522    51A1     3.544309    27B2     3.626114  
      52A1     3.630804    20A2     3.632043    28B2     3.659578  
      43B1     3.681872    53A1     3.692937    21A2     3.708080  
      22A2     3.750148    29B2     3.762279    54A1     3.886352  
      44B1     3.887913    55A1     3.901083    45B1     3.955303  
      46B1     4.190584    56A1     4.196819    57A1    12.694507  
      47B1    12.694758    30B2    12.694854    23A2    12.694977  
      58A1    12.695155    48B1    12.695391    24A2    12.695547  
      31B2    12.695649    49B1    12.696438    59A1    12.696457  
      25A2    12.696978    50B1    12.697159    32B2    12.697239  
      60A1    12.697696    61A1    12.698399    51B1    12.698411  
      26A2    12.698433    33B2    12.698459    62A1    12.709643  
      52B1    12.710345    34B2    12.711092    27A2    12.711560  
      53B1    12.712812    63A1    12.713244    35B2    12.713472  
      28A2    12.714012    64A1    12.714082    36B2    12.854583  
      37B2    12.856118    65A1    12.856122    54B1    12.856406  
      29A2    12.856877    30A2    12.857083    66A1    12.857486  
      67A1    12.858679    55B1    12.859365    38B2    12.862859  
      31A2    12.867369    56B1    12.868573    39B2    12.871243  
      68A1    12.873171    57B1    12.873902    32A2    12.879819  
      69A1    12.880906    40B2    12.882404    58B1    12.948179  
      70A1    12.956287    59B1    12.959139  

    Final Occupation by Irrep:
             A1    A2    B1    B2 
    DOCC [    18,    5,   13,    7 ]
    SOCC [     1,    0,    0,    0 ]

  @DF-UKS Final Energy: -4922.36476519291864

   => Energetics <=

    Nuclear Repulsion Energy =            572.3288892399986025
    One-Electron Energy =               -8005.5148682920817009
    Two-Electron Energy =                2626.6419850341976598
    DFT Exchange-Correlation Energy =    -115.8206781950329116
    Empirical Dispersion Energy =          -0.0000929800000000
    VV10 Nonlocal Energy =                  0.0000000000000000
    Total Energy =                      -4922.3647651929186395

  UHF NO Occupations:
  HONO-2 :   13 B1 1.9984405
  HONO-1 :   18 A1 1.9935064
  HONO-0 :   19 A1 1.0000000
  LUNO+0 :   20 A1 0.0064936
  LUNO+1 :   14 B1 0.0015595
  LUNO+2 :   15 B1 0.0002189
  LUNO+3 :   21 A1 0.0001977


Computation Completed


Properties will be evaluated at   0.000000,   0.000000,   0.000000 [a0]

Properties computed using the SCF density matrix

  Nuclear Dipole Moment: [e a0]
     X:    -0.0000      Y:    -0.0000      Z:     0.0000

  Electronic Dipole Moment: [e a0]
     X:     0.0000      Y:     0.0000      Z:    -0.3149

  Dipole Moment: [e a0]
     X:    -0.0000      Y:    -0.0000      Z:    -0.3149     Total:     0.3149

  Dipole Moment: [D]
     X:    -0.0000      Y:    -0.0000      Z:    -0.8005     Total:     0.8005


*** tstop() called on bp1-compute00145.data.bp.acrc.priv at Fri Oct 29 08:44:38 2021
Module time:
	user time   =     509.31 seconds =       8.49 minutes
	system time =      25.26 seconds =       0.42 minutes
	total time  =         22 seconds =       0.37 minutes
Total time:
	user time   =     509.31 seconds =       8.49 minutes
	system time =      25.26 seconds =       0.42 minutes
	total time  =         22 seconds =       0.37 minutes

*** tstart() called on bp1-compute00145.data.bp.acrc.priv
*** at Fri Oct 29 08:44:39 2021


         ------------------------------------------------------------
                                   SCF GRAD                          
                          Rob Parrish, Justin Turney,                
                       Andy Simmonett, and Alex Sokolov              
         ------------------------------------------------------------

  ==> Geometry <==

    Molecular point group: c2v
    Full point group: C2v

    Geometry (in Angstrom), charge = 0, multiplicity = 2:

       Center              X                  Y                   Z               Mass       
    ------------   -----------------  -----------------  -----------------  -----------------
         CU           0.000000000000    -0.000000000000     1.346828000000    62.929597720000
         CU           1.166387000000     0.000000000000    -0.673414000000    62.929597720000
         CU          -1.166387000000    -0.000000000000    -0.673414000000    62.929597720000

  Nuclear repulsion =  572.328889239998603

  ==> Basis Set <==

  Basis Set: DEF2-TZVPPD
    Blend: DEF2-TZVPPD
    Number of shells: 57
    Number of basis function: 201
    Number of Cartesian functions: 249
    Spherical Harmonics?: true
    Max angular momentum: 4

  ==> DFJKGrad: Density-Fitted SCF Gradients <==

    Gradient:                    1
    J tasked:                  Yes
    K tasked:                  Yes
    wK tasked:                  No
    OpenMP threads:             24
    Integrals threads:          24
    Memory [MiB]:           102996
    Schwarz Cutoff:          0E+00
    Fitting Condition:       1E-10

   => Auxiliary Basis Set <=

  Basis Set: (DEF2-TZVPPD AUX)
    Blend: DEF2-TZVPP-JKFIT
    Number of shells: 174
    Number of basis function: 792
    Number of Cartesian functions: 1131
    Spherical Harmonics?: true
    Max angular momentum: 6

  ==> DFT Potential <==

   => Composite Functional: MN15-D3BJ <= 

   MN15 Hybrid Meta-GGA Exchange-Correlation Functional

    H. S. Yu, X. He, S. L. Li, and D. G. Truhlar, Chem. Sci. 7, 5032-5051, 2016


    Deriv               =              1
    GGA                 =           TRUE
    Meta                =           TRUE

    Exchange Hybrid     =           TRUE
    MP2 Hybrid          =          FALSE

   => Exchange Functionals <=

    1.0000   XC_HYB_MGGA_X_MN15

   => Exact (HF) Exchange <=

    0.4400               HF 

   => Correlation Functionals <=

    1.0000   XC_MGGA_C_MN15

   => Molecular Quadrature <=

    Radial Scheme          =       TREUTLER
    Pruning Scheme         =           FLAT
    Nuclear Scheme         =       TREUTLER

    BS radius alpha        =              1
    Pruning alpha          =              1
    Radial Points          =             75
    Spherical Points       =            302
    Total Points           =          67950
    Total Blocks           =            595
    Max Points             =            254
    Max Functions          =            191


  -Total Gradient:
     Atom            X                  Y                   Z
    ------   -----------------  -----------------  -----------------
       1        0.000000000000    -0.000000000000    -0.018579224184
       2        0.000225489269     0.000000000000     0.009314627716
       3       -0.000225489269    -0.000000000000     0.009314627716


*** tstop() called on bp1-compute00145.data.bp.acrc.priv at Fri Oct 29 08:44:46 2021
Module time:
	user time   =     100.66 seconds =       1.68 minutes
	system time =       5.35 seconds =       0.09 minutes
	total time  =          7 seconds =       0.12 minutes
Total time:
	user time   =     611.17 seconds =      10.19 minutes
	system time =      30.68 seconds =       0.51 minutes
	total time  =         30 seconds =       0.50 minutes

			-----------------------------------------
			 OPTKING 2.0: for geometry optimizations 
			  - R.A. King,  Bethel University        
			-----------------------------------------
	At level 1: Red. Int., RFO, no backsteps, dynamic trust

	Internal coordinates to be generated automatically.
	Detected frag 1 with atoms:  1 2 3
	---Fragment 1 Bond Connectivity---
	 1 : 2 3
	 2 : 1 3
	 3 : 1 2

	---Fragment 1 Geometry and Gradient---
	 CU          0.0000000000       -0.0000000000        2.5451360581
	 CU          2.2041519863        0.0000000000       -1.2725680290
	 CU         -2.2041519863       -0.0000000000       -1.2725680290
	             0.0000000000       -0.0000000000       -0.0185792242
	             0.0002254893        0.0000000000        0.0093146277
	            -0.0002254893       -0.0000000000        0.0093146277

	Previous optimization step data not found.  Starting new optimization.

	---Fragment 1 Intrafragment Coordinates---
	 - Coordinate -           - BOHR/RAD -       - ANG/DEG -
	 R(1,2)           =         4.408305	       2.332774
	 R(1,3)           =         4.408305	       2.332774
	 R(2,3)           =         4.408304	       2.332774
	 B(1,2,3)         =         1.047198	      60.000006
	 B(1,3,2)         =         1.047198	      60.000006
	 B(2,1,3)         =         1.047197	      59.999989

	Current energy   :     -4922.3647651929

	Generating empirical Hessian (Schlegel '84) for each fragment.
	Taking RFO optimization step.
	Going to follow RFO solution 1.
	Using RFO vector 1.
	Norm of target step-size    0.10549
	Projected energy change by RFO approximation:        -0.0010295354

	Back-transformation to cartesian coordinates...
	Successfully converged to displaced geometry.

	--- Internal Coordinate Step in ANG or DEG, aJ/ANG or AJ/DEG ---
	 ---------------------------------------------------------------------------
	   Coordinate                Previous        Force       Change         New 
	   ----------                --------       ------       ------       ------
	    1 R(1,2)          =      2.332774     0.082456     0.036889     2.369663
	    2 R(1,3)          =      2.332774     0.082456     0.036889     2.369663
	    3 R(2,3)          =      2.332774    -0.034090    -0.012402     2.320372
	    4 B(1,2,3)        =     60.000006     0.000141     0.685731    60.685737
	    5 B(1,3,2)        =     60.000006     0.000141     0.685731    60.685737
	    6 B(2,1,3)        =     59.999989    -0.000282    -1.371462    58.628526
	 ---------------------------------------------------------------------------
	Successfully symmetrized geometry.

  ==> Convergence Check <==

  Measures of convergence in internal coordinates in au.
  Criteria marked as inactive (o), active & met (*), and active & unmet ( ).
  --------------------------------------------------------------------------------------------- ~
   Step     Total Energy     Delta E     MAX Force     RMS Force      MAX Disp      RMS Disp    ~
  --------------------------------------------------------------------------------------------- ~
    Convergence Criteria    1.00e-06 *    3.00e-04 *             o    1.20e-03 *             o  ~
  --------------------------------------------------------------------------------------------- ~
      1   -4922.36476519   -4.92e+03      1.00e-02      6.30e-03 o    6.97e-02      4.31e-02 o  ~
  ---------------------------------------------------------------------------------------------

	Writing optimization data to binary file.
	Structure for next step:
	Cartesian Geometry (in Angstrom)
	   CU     0.0000000000  -0.0000000000   1.3774810937
	   CU     1.1601859496   0.0000000000  -0.6887405468
	   CU    -1.1601859496  -0.0000000000  -0.6887405468
			--------------------------
			 OPTKING Finished Execution 
			--------------------------

    Structure for next step:
    Molecular point group: c2v
    Full point group: C2v

    Geometry (in Angstrom), charge = 0, multiplicity = 2:

    CU           0.000000000000     0.000000000000     1.377481099070
    CU           1.160185954170     0.000000000000    -0.688740549535
    CU          -1.160185954170    -0.000000000000    -0.688740549535

gradient() will perform analytic gradient computation.

*** tstart() called on bp1-compute00145.data.bp.acrc.priv
*** at Fri Oct 29 08:44:46 2021

   => Loading Basis Set <=

    Name: DEF2-TZVPPD
    Role: ORBITAL
    Keyword: BASIS
    atoms 1-3 entry CU         line  1290 file /work/zw18965/.conda/envs/p4env/share/psi4/basis/def2-tzvppd.gbs 


         ---------------------------------------------------------
                                   SCF
               by Justin Turney, Rob Parrish, Andy Simmonett
                          and Daniel G. A. Smith
                              UKS Reference
                       24 Threads, 137329 MiB Core
         ---------------------------------------------------------

  ==> Geometry <==

    Molecular point group: c2v
    Full point group: C2v

    Geometry (in Angstrom), charge = 0, multiplicity = 2:

       Center              X                  Y                   Z               Mass       
    ------------   -----------------  -----------------  -----------------  -----------------
         CU           0.000000000000     0.000000000000     1.377481099070    62.929597720000
         CU           1.160185954170     0.000000000000    -0.688740549535    62.929597720000
         CU          -1.160185954170    -0.000000000000    -0.688740549535    62.929597720000

  Running in c2v symmetry.

  Rotational constants: A =      0.09951  B =      0.09412  C =      0.04837 [cm^-1]
  Rotational constants: A =   2983.16340  B =   2821.62756  C =   1450.07393 [MHz]
  Nuclear repulsion =  567.408904801994140

  Charge       = 0
  Multiplicity = 2
  Electrons    = 87
  Nalpha       = 44
  Nbeta        = 43

  ==> Algorithm <==

  SCF Algorithm Type is DF.
  DIIS enabled.
  MOM disabled.
  Fractional occupation disabled.
  Guess Type is READ.
  Energy threshold   = 1.00e-08
  Density threshold  = 1.00e-08
  Integral threshold = 0.00e+00

  ==> Primary Basis <==

  Basis Set: DEF2-TZVPPD
    Blend: DEF2-TZVPPD
    Number of shells: 57
    Number of basis function: 201
    Number of Cartesian functions: 249
    Spherical Harmonics?: true
    Max angular momentum: 4

  ==> DFT Potential <==

   => Composite Functional: MN15-D3BJ <= 

   MN15 Hybrid Meta-GGA Exchange-Correlation Functional

    H. S. Yu, X. He, S. L. Li, and D. G. Truhlar, Chem. Sci. 7, 5032-5051, 2016


    Deriv               =              1
    GGA                 =           TRUE
    Meta                =           TRUE

    Exchange Hybrid     =           TRUE
    MP2 Hybrid          =          FALSE

   => Exchange Functionals <=

    1.0000   XC_HYB_MGGA_X_MN15

   => Exact (HF) Exchange <=

    0.4400               HF 

   => Correlation Functionals <=

    1.0000   XC_MGGA_C_MN15

   => Molecular Quadrature <=

    Radial Scheme          =       TREUTLER
    Pruning Scheme         =           FLAT
    Nuclear Scheme         =       TREUTLER

    BS radius alpha        =              1
    Pruning alpha          =              1
    Radial Points          =             75
    Spherical Points       =            302
    Total Points           =          67950
    Total Blocks           =            595
    Max Points             =            255
    Max Functions          =            191

   => MN15-D3(BJ): Empirical Dispersion <=

    Grimme's -D3 (BJ-damping) Dispersion Correction
    Grimme S.; Ehrlich S.; Goerigk L. (2011), J. Comput. Chem., 32: 1456
    Parametrisation from:    L. Goerigk, A. Hansen, C. Bauer, S. Ehrlich, A. Najibi, S. Grimme, Phys. Chem. Chem. Phys. 19, 32184-32215, 2017

        s6 =       1.000000
        s8 =       2.097100
        a1 =       0.786200
        a2 =       7.592300

   => Loading Basis Set <=

    Name: (DEF2-TZVPPD AUX)
    Role: JKFIT
    Keyword: DF_BASIS_SCF
    atoms 1-3 entry CU         line  2361 file /work/zw18965/.conda/envs/p4env/share/psi4/basis/def2-tzvpp-jkfit.gbs 

   => Loading Basis Set <=

    Name: DEF2-TZVPPD
    Role: ORBITAL
    Keyword: BASIS
    atoms 1-3 entry CU         line  1290 file /work/zw18965/.conda/envs/p4env/share/psi4/basis/def2-tzvppd.gbs 

  Reading orbitals from file 180, no projection.

  ==> Pre-Iterations <==

   -------------------------------------------------------
    Irrep   Nso     Nmo     Nalpha   Nbeta   Ndocc  Nsocc
   -------------------------------------------------------
     A1        70      70       0       0       0       0
     A2        32      32       0       0       0       0
     B1        59      59       0       0       0       0
     B2        40      40       0       0       0       0
   -------------------------------------------------------
    Total     201     201      44      43      43       1
   -------------------------------------------------------

  ==> Integral Setup <==

  DFHelper Memory: AOs need 0.245 GiB; user supplied 99.940 GiB. Using in-core AOs.

  ==> MemDFJK: Density-Fitted J/K Matrices <==

    J tasked:                   Yes
    K tasked:                   Yes
    wK tasked:                   No
    OpenMP threads:              24
    Memory [MiB]:            102338
    Algorithm:                 Core
    Schwarz Cutoff:           1E-12
    Mask sparsity (%):       7.1087
    Fitting Condition:        1E-10

   => Auxiliary Basis Set <=

  Basis Set: (DEF2-TZVPPD AUX)
    Blend: DEF2-TZVPP-JKFIT
    Number of shells: 174
    Number of basis function: 792
    Number of Cartesian functions: 1131
    Spherical Harmonics?: true
    Max angular momentum: 6

  Cached 100.0% of DFT collocation blocks in 0.643 [GiB].

  Minimum eigenvalue in the overlap matrix is 7.6142004663E-04.
  Using Symmetric Orthogonalization.

  SCF Guess: Orbitals guess was supplied from a previous computation.

  ==> Iterations <==

                           Total Energy        Delta E     RMS |[F,P]|

   @DF-UKS iter   0: -4922.38972819947958   -4.92239e+03   1.52383e-03 
   @DF-UKS iter   1: -4922.36607669628575    2.36515e-02   8.38082e-05 DIIS
   @DF-UKS iter   2: -4922.36601085837174    6.58379e-05   2.28715e-04 DIIS
   @DF-UKS iter   3: -4922.36609402588238   -8.31675e-05   1.59334e-05 DIIS
   @DF-UKS iter   4: -4922.36609478051560   -7.54633e-07   1.05325e-05 DIIS
   @DF-UKS iter   5: -4922.36609498123835   -2.00723e-07   4.47017e-06 DIIS
   @DF-UKS iter   6: -4922.36609507787944   -9.66411e-08   9.49446e-07 DIIS
   @DF-UKS iter   7: -4922.36609510055951   -2.26801e-08   3.75967e-07 DIIS
   @DF-UKS iter   8: -4922.36609510423477   -3.67527e-09   1.57572e-07 DIIS
   @DF-UKS iter   9: -4922.36609510485687   -6.22094e-10   4.50876e-08 DIIS
   @DF-UKS iter  10: -4922.36609510493327   -7.63976e-11   2.01830e-08 DIIS
   @DF-UKS iter  11: -4922.36609510494691   -1.36424e-11   8.44986e-09 DIIS
  Energy and wave function converged.


  ==> Post-Iterations <==

   @Spin Contamination Metric:   1.815926906E-02
   @S^2 Expected:                7.500000000E-01
   @S^2 Observed:                7.681592691E-01
   @S   Expected:                5.000000000E-01
   @S   Observed:                5.000000000E-01

    Orbital Energies [Eh]
    ---------------------

    Alpha Occupied:                                                       

       1B1  -320.708105     1A1  -320.708094     2A1  -320.692091  
       2B1   -37.878633     3A1   -37.878474     4A1   -37.864780  
       3B1   -33.730159     5A1   -33.730147     4B1   -33.727958  
       6A1   -33.727947     1A2   -33.727181     1B2   -33.727173  
       7A1   -33.715169     5B1   -33.714932     2B2   -33.712418  
       8A1    -4.098611     6B1    -4.098103     9A1    -4.083600  
      10A1    -2.771878     7B1    -2.768865    11A1    -2.768292  
       3B2    -2.767066     2A2    -2.766724     8B1    -2.766643  
      12A1    -2.754287     9B1    -2.752682     4B2    -2.749430  
      13A1    -0.375939    14A1    -0.361370     5B2    -0.358321  
      10B1    -0.352667    15A1    -0.345717     6B2    -0.344442  
       3A2    -0.338598    11B1    -0.326048     4A2    -0.322371  
      12B1    -0.321723    16A1    -0.315547     5A2    -0.313987  
      17A1    -0.312396     7B2    -0.311377    13B1    -0.300300  
      18A1    -0.287371    19A1    -0.166891  

    Alpha Virtual:                                                        

      14B1    -0.085344     8B2    -0.034124    20A1    -0.008657  
      15B1     0.011647    21A1     0.024249     9B2     0.049682  
       6A2     0.063814    22A1     0.070779    16B1     0.074495  
      17B1     0.109729    23A1     0.135240    10B2     0.138132  
      24A1     0.143050    25A1     0.154541    18B1     0.156732  
       7A2     0.191490    11B2     0.193481    26A1     0.211856  
      27A1     0.228153    19B1     0.233257     8A2     0.235195  
      12B2     0.241143    20B1     0.243273    28A1     0.252349  
      21B1     0.255785    13B2     0.269370    29A1     0.324662  
      22B1     0.324988     9A2     0.349879    30A1     0.359668  
      23B1     0.379849    31A1     0.382236    10A2     0.382550  
      14B2     0.383868    24B1     0.487849    32A1     0.518502  
      25B1     0.523389    15B2     0.666106    33A1     0.666986  
      34A1     0.713577    26B1     0.721505    16B2     0.774239  
      11A2     0.774691    35A1     0.816347    27B1     0.831708  
      36A1     0.836607    17B2     0.846188    18B2     0.869985  
      12A2     0.878976    37A1     0.958993    28B1     0.964231  
      29B1     0.972329    38A1     0.977180    13A2     1.051538  
      39A1     1.062438    30B1     1.063255    19B2     1.106535  
      14A2     1.107814    40A1     1.264766    31B1     1.275299  
      32B1     1.293296    20B2     2.940552    33B1     3.008084  
      41A1     3.010354    15A2     3.042757    21B2     3.048106  
      42A1     3.057097    34B1     3.058600    43A1     3.072456  
      44A1     3.083998    35B1     3.179860    45A1     3.358008  
      22B2     3.377978    23B2     3.387067    16A2     3.391348  
      46A1     3.402902    36B1     3.403759    24B2     3.407318  
      37B1     3.407526    47A1     3.407671    17A2     3.407989  
      38B1     3.409956    18A2     3.410529    48A1     3.412293  
      19A2     3.417166    25B2     3.417407    39B1     3.422424  
      26B2     3.424537    49A1     3.447614    40B1     3.448423  
      50A1     3.450918    41B1     3.475146    51A1     3.528156  
      42B1     3.534037    27B2     3.623061    20A2     3.624653  
      52A1     3.624924    28B2     3.653028    43B1     3.675484  
      53A1     3.682688    21A2     3.700797    22A2     3.747084  
      29B2     3.752958    44B1     3.869464    54A1     3.875774  
      55A1     3.886058    45B1     3.942780    46B1     4.172915  
      56A1     4.178663    57A1    12.695195    47B1    12.695424  
      30B2    12.695688    23A2    12.695747    58A1    12.695969  
      48B1    12.696054    24A2    12.696376    31B2    12.696423  
      59A1    12.697238    49B1    12.697393    25A2    12.697668  
      50B1    12.697774    32B2    12.697826    60A1    12.698074  
      61A1    12.699352    51B1    12.699354    26A2    12.699411  
      33B2    12.699415    62A1    12.711250    52B1    12.712141  
      34B2    12.713244    27A2    12.713345    53B1    12.714847  
      63A1    12.715130    35B2    12.715245    64A1    12.716412  
      28A2    12.716464    36B2    12.854913    65A1    12.856182  
      37B2    12.856576    54B1    12.857376    29A2    12.857378  
      30A2    12.857451    66A1    12.857820    67A1    12.858768  
      55B1    12.861097    38B2    12.862618    31A2    12.868646  
      56B1    12.869878    39B2    12.872406    68A1    12.874538  
      57B1    12.874595    69A1    12.878679    32A2    12.879019  
      40B2    12.880738    70A1    12.943406    58B1    12.943812  
      59B1    12.954991  

    Beta Occupied:                                                        

       1B1  -320.707990     1A1  -320.707979     2A1  -320.691738  
       2B1   -37.878502     3A1   -37.878342     4A1   -37.864834  
       3B1   -33.730238     5A1   -33.730229     4B1   -33.728072  
       6A1   -33.728058     1A2   -33.727023     1B2   -33.727015  
       7A1   -33.716610     5B1   -33.714599     2B2   -33.712245  
       8A1    -4.098334     6B1    -4.097825     9A1    -4.082284  
      10A1    -2.771881     7B1    -2.767903    11A1    -2.767667  
       3B2    -2.767157     8B1    -2.767039     2A2    -2.766820  
       9B1    -2.752883    12A1    -2.752815     4B2    -2.749658  
      13A1    -0.374307    14A1    -0.360383     5B2    -0.358123  
      10B1    -0.350127    15A1    -0.344140     6B2    -0.343916  
       3A2    -0.337879    11B1    -0.326040     4A2    -0.322830  
      12B1    -0.321026    16A1    -0.314808     5A2    -0.313091  
       7B2    -0.309066    17A1    -0.308552    13B1    -0.296919  
      18A1    -0.277898  

    Beta Virtual:                                                         

      14B1    -0.076370    19A1    -0.055743     8B2    -0.026236  
      20A1     0.025409    15B1     0.046948    21A1     0.051565  
       6A2     0.070650    16B1     0.078368     9B2     0.084582  
      22A1     0.088904    17B1     0.130674    23A1     0.137046  
      10B2     0.145721    24A1     0.148180    18B1     0.164372  
      25A1     0.167799     7A2     0.187458    11B2     0.195072  
      26A1     0.226345    19B1     0.237143    20B1     0.243043  
      12B2     0.247054    27A1     0.249160     8A2     0.250204  
      21B1     0.260779    28A1     0.271548    13B2     0.278552  
      22B1     0.336708    29A1     0.338111     9A2     0.358276  
      30A1     0.365254    10A2     0.387025    23B1     0.391299  
      31A1     0.395120    14B2     0.399095    24B1     0.493796  
      32A1     0.518780    25B1     0.519855    15B2     0.661165  
      33A1     0.665694    34A1     0.717077    26B1     0.722290  
      11A2     0.771022    16B2     0.777914    35A1     0.825047  
      27B1     0.830327    36A1     0.841640    17B2     0.849374  
      18B2     0.876920    12A2     0.884132    28B1     0.959924  
      37A1     0.961131    29B1     0.979079    38A1     0.983775  
      13A2     1.059348    30B1     1.070146    39A1     1.070494  
      14A2     1.107642    19B2     1.108846    40A1     1.266410  
      31B1     1.274226    32B1     1.299636    20B2     2.942354  
      33B1     3.012422    41A1     3.015118    15A2     3.043419  
      21B2     3.054015    42A1     3.059732    34B1     3.060545  
      43A1     3.078448    44A1     3.087639    35B1     3.186224  
      45A1     3.362821    22B2     3.378356    23B2     3.393136  
      16A2     3.397311    46A1     3.405276    36B1     3.405824  
      24B2     3.409386    17A2     3.409413    47A1     3.410248  
      37B1     3.410305    18A2     3.411223    38B1     3.413029  
      48A1     3.417153    19A2     3.421609    25B2     3.422636  
      39B1     3.427179    26B2     3.429888    49A1     3.452888  
      40B1     3.453254    50A1     3.457652    41B1     3.478065  
      51A1     3.533179    42B1     3.535958    27B2     3.626426  
      20A2     3.628308    52A1     3.629042    28B2     3.654065  
      43B1     3.681464    53A1     3.690756    21A2     3.707172  
      22A2     3.748456    29B2     3.759769    44B1     3.874557  
      54A1     3.878931    55A1     3.889045    45B1     3.951647  
      46B1     4.172549    56A1     4.181708    57A1    12.695150  
      47B1    12.695398    30B2    12.695470    58A1    12.695631  
      23A2    12.695645    48B1    12.696001    24A2    12.696075  
      31B2    12.696135    59A1    12.696900    49B1    12.696979  
      25A2    12.697547    32B2    12.697786    50B1    12.697798  
      60A1    12.698351    61A1    12.698959    51B1    12.698968  
      26A2    12.699067    33B2    12.699098    62A1    12.711335  
      52B1    12.712161    34B2    12.712847    27A2    12.713134  
      53B1    12.714417    63A1    12.714828    35B2    12.715001  
      28A2    12.715516    64A1    12.715554    36B2    12.854948  
      65A1    12.856427    37B2    12.856653    54B1    12.857500  
      29A2    12.857568    66A1    12.857938    30A2    12.858061  
      67A1    12.859126    55B1    12.861877    38B2    12.863312  
      31A2    12.868757    56B1    12.870194    39B2    12.872909  
      57B1    12.874942    68A1    12.875354    32A2    12.879804  
      69A1    12.879945    40B2    12.881737    70A1    12.944168  
      58B1    12.944927    59B1    12.955367  

    Final Occupation by Irrep:
             A1    A2    B1    B2 
    DOCC [    18,    5,   13,    7 ]
    SOCC [     1,    0,    0,    0 ]

  @DF-UKS Final Energy: -4922.36609510494691

   => Energetics <=

    Nuclear Repulsion Energy =            567.4089048019941401
    One-Electron Energy =               -7995.7661224058419975
    Two-Electron Energy =                2621.8092809642112115
    DFT Exchange-Correlation Energy =    -115.8180654853107825
    Empirical Dispersion Energy =          -0.0000929800000000
    VV10 Nonlocal Energy =                  0.0000000000000000
    Total Energy =                      -4922.3660951049469077

  UHF NO Occupations:
  HONO-2 :   13 B1 1.9984861
  HONO-1 :   18 A1 1.9933502
  HONO-0 :   19 A1 1.0000000
  LUNO+0 :   20 A1 0.0066498
  LUNO+1 :   14 B1 0.0015139
  LUNO+2 :   15 B1 0.0002120
  LUNO+3 :   21 A1 0.0001949


Computation Completed


Properties will be evaluated at   0.000000,   0.000000,   0.000000 [a0]

Properties computed using the SCF density matrix

  Nuclear Dipole Moment: [e a0]
     X:     0.0000      Y:     0.0000      Z:     0.0000

  Electronic Dipole Moment: [e a0]
     X:     0.0000      Y:     0.0000      Z:    -0.3212

  Dipole Moment: [e a0]
     X:     0.0000      Y:     0.0000      Z:    -0.3212     Total:     0.3212

  Dipole Moment: [D]
     X:     0.0000      Y:     0.0000      Z:    -0.8165     Total:     0.8165


*** tstop() called on bp1-compute00145.data.bp.acrc.priv at Fri Oct 29 08:45:00 2021
Module time:
	user time   =     312.34 seconds =       5.21 minutes
	system time =      14.29 seconds =       0.24 minutes
	total time  =         14 seconds =       0.23 minutes
Total time:
	user time   =     924.12 seconds =      15.40 minutes
	system time =      45.00 seconds =       0.75 minutes
	total time  =         44 seconds =       0.73 minutes

*** tstart() called on bp1-compute00145.data.bp.acrc.priv
*** at Fri Oct 29 08:45:00 2021


         ------------------------------------------------------------
                                   SCF GRAD                          
                          Rob Parrish, Justin Turney,                
                       Andy Simmonett, and Alex Sokolov              
         ------------------------------------------------------------

  ==> Geometry <==

    Molecular point group: c2v
    Full point group: C2v

    Geometry (in Angstrom), charge = 0, multiplicity = 2:

       Center              X                  Y                   Z               Mass       
    ------------   -----------------  -----------------  -----------------  -----------------
         CU           0.000000000000     0.000000000000     1.377481099070    62.929597720000
         CU           1.160185954170     0.000000000000    -0.688740549535    62.929597720000
         CU          -1.160185954170    -0.000000000000    -0.688740549535    62.929597720000

  Nuclear repulsion =  567.408904801994140

  ==> Basis Set <==

  Basis Set: DEF2-TZVPPD
    Blend: DEF2-TZVPPD
    Number of shells: 57
    Number of basis function: 201
    Number of Cartesian functions: 249
    Spherical Harmonics?: true
    Max angular momentum: 4

  ==> DFJKGrad: Density-Fitted SCF Gradients <==

    Gradient:                    1
    J tasked:                  Yes
    K tasked:                  Yes
    wK tasked:                  No
    OpenMP threads:             24
    Integrals threads:          24
    Memory [MiB]:           102996
    Schwarz Cutoff:          0E+00
    Fitting Condition:       1E-10

   => Auxiliary Basis Set <=

  Basis Set: (DEF2-TZVPPD AUX)
    Blend: DEF2-TZVPP-JKFIT
    Number of shells: 174
    Number of basis function: 792
    Number of Cartesian functions: 1131
    Spherical Harmonics?: true
    Max angular momentum: 6

  ==> DFT Potential <==

   => Composite Functional: MN15-D3BJ <= 

   MN15 Hybrid Meta-GGA Exchange-Correlation Functional

    H. S. Yu, X. He, S. L. Li, and D. G. Truhlar, Chem. Sci. 7, 5032-5051, 2016


    Deriv               =              1
    GGA                 =           TRUE
    Meta                =           TRUE

    Exchange Hybrid     =           TRUE
    MP2 Hybrid          =          FALSE

   => Exchange Functionals <=

    1.0000   XC_HYB_MGGA_X_MN15

   => Exact (HF) Exchange <=

    0.4400               HF 

   => Correlation Functionals <=

    1.0000   XC_MGGA_C_MN15

   => Molecular Quadrature <=

    Radial Scheme          =       TREUTLER
    Pruning Scheme         =           FLAT
    Nuclear Scheme         =       TREUTLER

    BS radius alpha        =              1
    Pruning alpha          =              1
    Radial Points          =             75
    Spherical Points       =            302
    Total Points           =          67950
    Total Blocks           =            595
    Max Points             =            255
    Max Functions          =            191


  -Total Gradient:
     Atom            X                  Y                   Z
    ------   -----------------  -----------------  -----------------
       1        0.000000000000    -0.000000000000    -0.011992402559
       2        0.000665313515     0.000000000000     0.006034864018
       3       -0.000665313515    -0.000000000000     0.006034864018


*** tstop() called on bp1-compute00145.data.bp.acrc.priv at Fri Oct 29 08:45:08 2021
Module time:
	user time   =      99.83 seconds =       1.66 minutes
	system time =       5.28 seconds =       0.09 minutes
	total time  =          8 seconds =       0.13 minutes
Total time:
	user time   =    1025.34 seconds =      17.09 minutes
	system time =      50.38 seconds =       0.84 minutes
	total time  =         52 seconds =       0.87 minutes

			-----------------------------------------
			 OPTKING 2.0: for geometry optimizations 
			  - R.A. King,  Bethel University        
			-----------------------------------------
	At level 1: Red. Int., RFO, no backsteps, dynamic trust

	Previous internal coordinate definitions found.
	---Fragment 1 Geometry and Gradient---
	 CU          0.0000000000        0.0000000000        2.6030620202
	 CU          2.1924337080        0.0000000000       -1.3015310101
	 CU         -2.1924337080       -0.0000000000       -1.3015310101
	             0.0000000000       -0.0000000000       -0.0119924026
	             0.0006653135        0.0000000000        0.0060348640
	            -0.0006653135       -0.0000000000        0.0060348640

	---Fragment 1 Intrafragment Coordinates---
	 - Coordinate -           - BOHR/RAD -       - ANG/DEG -
	 R(1,2)           =         4.478014	       2.369663
	 R(1,3)           =         4.478014	       2.369663
	 R(2,3)           =         4.384867	       2.320372
	 B(1,2,3)         =         1.059166	      60.685737
	 B(1,3,2)         =         1.059166	      60.685737
	 B(2,1,3)         =         1.023261	      58.628526

	Current energy   :     -4922.3660951049

	Energy change for the previous step:
		Projected    :        -0.0010295354
		Actual       :        -0.0013299120
	Energy ratio indicates good step: Trust radius increased to 1.000e+00.


	Performing BFGS update.
	Previous computed or guess Hessian on step 1.
	Steps to be used in Hessian update: 1
	Taking RFO optimization step.
	Going to follow RFO solution 1.
	Using RFO vector 1.
	Norm of target step-size    0.18963
	Projected energy change by RFO approximation:        -0.0039037082

	Back-transformation to cartesian coordinates...
	Successfully converged to displaced geometry.

	--- Internal Coordinate Step in ANG or DEG, aJ/ANG or AJ/DEG ---
	 ---------------------------------------------------------------------------
	   Coordinate                Previous        Force       Change         New 
	   ----------                --------       ------       ------       ------
	    1 R(1,2)          =      2.369663     0.053041     0.065529     2.435192
	    2 R(1,3)          =      2.369663     0.053041     0.065529     2.435192
	    3 R(2,3)          =      2.320372    -0.025646    -0.026782     2.293590
	    4 B(1,2,3)        =     60.685737     0.000092     1.219859    61.905595
	    5 B(1,3,2)        =     60.685737     0.000092     1.219859    61.905595
	    6 B(2,1,3)        =     58.628526    -0.000184    -2.439717    56.188809
	 ---------------------------------------------------------------------------
	Successfully symmetrized geometry.

  ==> Convergence Check <==

  Measures of convergence in internal coordinates in au.
  Criteria marked as inactive (o), active & met (*), and active & unmet ( ).
  ---------------------------------------------------------------------------------------------
   Step     Total Energy     Delta E     MAX Force     RMS Force      MAX Disp      RMS Disp   
  ---------------------------------------------------------------------------------------------
    Convergence Criteria    1.00e-06 *    3.00e-04 *             o    1.20e-03 *             o
  ---------------------------------------------------------------------------------------------
      2   -4922.36609510   -1.33e-03      6.44e-03      4.11e-03 o    1.24e-01      7.74e-02 o  ~
  ---------------------------------------------------------------------------------------------

	Writing optimization data to binary file.
	Structure for next step:
	Cartesian Geometry (in Angstrom)
	   CU     0.0000000000  -0.0000000000   1.4321737491
	   CU     1.1467947571   0.0000000000  -0.7160868746
	   CU    -1.1467947571  -0.0000000000  -0.7160868746
			--------------------------
			 OPTKING Finished Execution 
			--------------------------

    Structure for next step:
    Molecular point group: c2v
    Full point group: C2v

    Geometry (in Angstrom), charge = 0, multiplicity = 2:

    CU           0.000000000000    -0.000000000000     1.432173754746
    CU           1.146794761603     0.000000000000    -0.716086877373
    CU          -1.146794761603    -0.000000000000    -0.716086877373

gradient() will perform analytic gradient computation.

*** tstart() called on bp1-compute00145.data.bp.acrc.priv
*** at Fri Oct 29 08:45:08 2021

   => Loading Basis Set <=

    Name: DEF2-TZVPPD
    Role: ORBITAL
    Keyword: BASIS
    atoms 1-3 entry CU         line  1290 file /work/zw18965/.conda/envs/p4env/share/psi4/basis/def2-tzvppd.gbs 


         ---------------------------------------------------------
                                   SCF
               by Justin Turney, Rob Parrish, Andy Simmonett
                          and Daniel G. A. Smith
                              UKS Reference
                       24 Threads, 137329 MiB Core
         ---------------------------------------------------------

  ==> Geometry <==

    Molecular point group: c2v
    Full point group: C2v

    Geometry (in Angstrom), charge = 0, multiplicity = 2:

       Center              X                  Y                   Z               Mass       
    ------------   -----------------  -----------------  -----------------  -----------------
         CU           0.000000000000    -0.000000000000     1.432173754746    62.929597720000
         CU           1.146794761603     0.000000000000    -0.716086877373    62.929597720000
         CU          -1.146794761603    -0.000000000000    -0.716086877373    62.929597720000

  Running in c2v symmetry.

  Rotational constants: A =      0.10185  B =      0.08707  C =      0.04694 [cm^-1]
  Rotational constants: A =   3053.23932  B =   2610.23473  C =   1407.20541 [MHz]
  Nuclear repulsion =  559.541047689776406

  Charge       = 0
  Multiplicity = 2
  Electrons    = 87
  Nalpha       = 44
  Nbeta        = 43

  ==> Algorithm <==

  SCF Algorithm Type is DF.
  DIIS enabled.
  MOM disabled.
  Fractional occupation disabled.
  Guess Type is READ.
  Energy threshold   = 1.00e-08
  Density threshold  = 1.00e-08
  Integral threshold = 0.00e+00

  ==> Primary Basis <==

  Basis Set: DEF2-TZVPPD
    Blend: DEF2-TZVPPD
    Number of shells: 57
    Number of basis function: 201
    Number of Cartesian functions: 249
    Spherical Harmonics?: true
    Max angular momentum: 4

  ==> DFT Potential <==

   => Composite Functional: MN15-D3BJ <= 

   MN15 Hybrid Meta-GGA Exchange-Correlation Functional

    H. S. Yu, X. He, S. L. Li, and D. G. Truhlar, Chem. Sci. 7, 5032-5051, 2016


    Deriv               =              1
    GGA                 =           TRUE
    Meta                =           TRUE

    Exchange Hybrid     =           TRUE
    MP2 Hybrid          =          FALSE

   => Exchange Functionals <=

    1.0000   XC_HYB_MGGA_X_MN15

   => Exact (HF) Exchange <=

    0.4400               HF 

   => Correlation Functionals <=

    1.0000   XC_MGGA_C_MN15

   => Molecular Quadrature <=

    Radial Scheme          =       TREUTLER
    Pruning Scheme         =           FLAT
    Nuclear Scheme         =       TREUTLER

    BS radius alpha        =              1
    Pruning alpha          =              1
    Radial Points          =             75
    Spherical Points       =            302
    Total Points           =          67950
    Total Blocks           =            596
    Max Points             =            256
    Max Functions          =            188

   => MN15-D3(BJ): Empirical Dispersion <=

    Grimme's -D3 (BJ-damping) Dispersion Correction
    Grimme S.; Ehrlich S.; Goerigk L. (2011), J. Comput. Chem., 32: 1456
    Parametrisation from:    L. Goerigk, A. Hansen, C. Bauer, S. Ehrlich, A. Najibi, S. Grimme, Phys. Chem. Chem. Phys. 19, 32184-32215, 2017

        s6 =       1.000000
        s8 =       2.097100
        a1 =       0.786200
        a2 =       7.592300

   => Loading Basis Set <=

    Name: (DEF2-TZVPPD AUX)
    Role: JKFIT
    Keyword: DF_BASIS_SCF
    atoms 1-3 entry CU         line  2361 file /work/zw18965/.conda/envs/p4env/share/psi4/basis/def2-tzvpp-jkfit.gbs 

   => Loading Basis Set <=

    Name: DEF2-TZVPPD
    Role: ORBITAL
    Keyword: BASIS
    atoms 1-3 entry CU         line  1290 file /work/zw18965/.conda/envs/p4env/share/psi4/basis/def2-tzvppd.gbs 

  Reading orbitals from file 180, no projection.

  ==> Pre-Iterations <==

   -------------------------------------------------------
    Irrep   Nso     Nmo     Nalpha   Nbeta   Ndocc  Nsocc
   -------------------------------------------------------
     A1        70      70       0       0       0       0
     A2        32      32       0       0       0       0
     B1        59      59       0       0       0       0
     B2        40      40       0       0       0       0
   -------------------------------------------------------
    Total     201     201      44      43      43       1
   -------------------------------------------------------

  ==> Integral Setup <==

  DFHelper Memory: AOs need 0.245 GiB; user supplied 99.943 GiB. Using in-core AOs.

  ==> MemDFJK: Density-Fitted J/K Matrices <==

    J tasked:                   Yes
    K tasked:                   Yes
    wK tasked:                   No
    OpenMP threads:              24
    Memory [MiB]:            102341
    Algorithm:                 Core
    Schwarz Cutoff:           1E-12
    Mask sparsity (%):       7.3365
    Fitting Condition:        1E-10

   => Auxiliary Basis Set <=

  Basis Set: (DEF2-TZVPPD AUX)
    Blend: DEF2-TZVPP-JKFIT
    Number of shells: 174
    Number of basis function: 792
    Number of Cartesian functions: 1131
    Spherical Harmonics?: true
    Max angular momentum: 6

  Cached 100.0% of DFT collocation blocks in 0.640 [GiB].

  Minimum eigenvalue in the overlap matrix is 7.5005551254E-04.
  Using Symmetric Orthogonalization.

  SCF Guess: Orbitals guess was supplied from a previous computation.

  ==> Iterations <==

                           Total Energy        Delta E     RMS |[F,P]|

   @DF-UKS iter   0: -4922.40307830573875   -4.92240e+03   2.56160e-03 
   @DF-UKS iter   1: -4922.36717225486245    3.59061e-02   1.10645e-04 DIIS
   @DF-UKS iter   2: -4922.36707208508778    1.00170e-04   2.91976e-04 DIIS
   @DF-UKS iter   3: -4922.36720850872825   -1.36424e-04   2.29800e-05 DIIS
   @DF-UKS iter   4: -4922.36721061653407   -2.10781e-06   1.27652e-05 DIIS
   @DF-UKS iter   5: -4922.36721095504072   -3.38507e-07   9.55418e-06 DIIS
   @DF-UKS iter   6: -4922.36721129234320   -3.37302e-07   1.76457e-06 DIIS
   @DF-UKS iter   7: -4922.36721137404857   -8.17054e-08   6.40585e-07 DIIS
   @DF-UKS iter   8: -4922.36721138602479   -1.19762e-08   2.76070e-07 DIIS
   @DF-UKS iter   9: -4922.36721138796565   -1.94086e-09   8.77330e-08 DIIS
   @DF-UKS iter  10: -4922.36721138823486   -2.69210e-10   3.62555e-08 DIIS
   @DF-UKS iter  11: -4922.36721138827488   -4.00178e-11   1.40263e-08 DIIS
   @DF-UKS iter  12: -4922.36721138827852   -3.63798e-12   3.89758e-09 DIIS
  Energy and wave function converged.


  ==> Post-Iterations <==

   @Spin Contamination Metric:   1.850004934E-02
   @S^2 Expected:                7.500000000E-01
   @S^2 Observed:                7.685000493E-01
   @S   Expected:                5.000000000E-01
   @S   Observed:                5.000000000E-01

    Orbital Energies [Eh]
    ---------------------

    Alpha Occupied:                                                       

       1B1  -320.707312     1A1  -320.707302     2A1  -320.689505  
       2B1   -37.877753     3A1   -37.877597     4A1   -37.861565  
       3B1   -33.729336     5A1   -33.729324     4B1   -33.727068  
       6A1   -33.727057     1A2   -33.726330     1B2   -33.726322  
       7A1   -33.712020     5B1   -33.711738     2B2   -33.709499  
       8A1    -4.097787     6B1    -4.097199     9A1    -4.080658  
      10A1    -2.771248     7B1    -2.767613    11A1    -2.767307  
       3B2    -2.766238     2A2    -2.765851     8B1    -2.765820  
      12A1    -2.751203     9B1    -2.749761     4B2    -2.746953  
      13A1    -0.372473    14A1    -0.361498     5B2    -0.356657  
      10B1    -0.347551    15A1    -0.344052     6B2    -0.343389  
       3A2    -0.335820    11B1    -0.324198     4A2    -0.320831  
      12B1    -0.320422    16A1    -0.314271     5A2    -0.312968  
      17A1    -0.312018     7B2    -0.310548    13B1    -0.300282  
      18A1    -0.285471    19A1    -0.168753  

    Alpha Virtual:                                                        

      14B1    -0.083749     8B2    -0.033462    20A1    -0.009927  
      15B1     0.011973    21A1     0.024421     9B2     0.047818  
       6A2     0.064627    22A1     0.070561    16B1     0.074757  
      17B1     0.109103    23A1     0.135652    10B2     0.138729  
      24A1     0.142566    25A1     0.154049    18B1     0.157666  
      11B2     0.191950     7A2     0.192517    26A1     0.210353  
      27A1     0.227177    19B1     0.233327     8A2     0.233636  
      12B2     0.240035    20B1     0.241728    28A1     0.248204  
      21B1     0.256813    13B2     0.268563    29A1     0.322324  
      22B1     0.323743     9A2     0.348058    30A1     0.360280  
      23B1     0.379760    14B2     0.380275    31A1     0.380578  
      10A2     0.383327    24B1     0.483402    32A1     0.506409  
      25B1     0.525892    33A1     0.666439    15B2     0.672007  
      34A1     0.707584    26B1     0.725298    16B2     0.769514  
      11A2     0.776003    35A1     0.820182    27B1     0.831381  
      36A1     0.835047    17B2     0.844150    18B2     0.868545  
      12A2     0.886136    28B1     0.955876    37A1     0.957244  
      29B1     0.963283    38A1     0.976148    13A2     1.047157  
      39A1     1.051887    30B1     1.064382    19B2     1.095339  
      14A2     1.109462    40A1     1.243420    31B1     1.264659  
      32B1     1.298857    20B2     2.941867    33B1     2.992303  
      41A1     2.994224    15A2     3.044389    21B2     3.045034  
      42A1     3.052527    34B1     3.059227    43A1     3.071929  
      44A1     3.112428    35B1     3.191375    45A1     3.362587  
      22B2     3.377302    23B2     3.388423    16A2     3.397432  
      46A1     3.403090    47A1     3.404216    36B1     3.404541  
      24B2     3.407882    17A2     3.409464    37B1     3.410276  
      18A2     3.412475    38B1     3.413592    48A1     3.415140  
      19A2     3.419332    25B2     3.419589    39B1     3.423727  
      26B2     3.426746    49A1     3.437718    40B1     3.441591  
      50A1     3.451447    41B1     3.466724    51A1     3.509789  
      42B1     3.538927    20A2     3.618189    27B2     3.619939  
      52A1     3.620838    28B2     3.647307    43B1     3.675188  
      53A1     3.680594    21A2     3.698968    22A2     3.745622  
      29B2     3.749067    54A1     3.839453    44B1     3.842262  
      55A1     3.889768    45B1     3.935362    46B1     4.148070  
      56A1     4.151320    57A1    12.696110    47B1    12.696357  
      30B2    12.696578    58A1    12.696596    23A2    12.696750  
      48B1    12.696886    31B2    12.697107    24A2    12.697128  
      59A1    12.697815    49B1    12.698172    25A2    12.698491  
      32B2    12.698637    50B1    12.698708    60A1    12.699044  
      61A1    12.700146    51B1    12.700153    26A2    12.700320  
      33B2    12.700330    62A1    12.714132    52B1    12.715067  
      27A2    12.715895    34B2    12.716166    53B1    12.717407  
      63A1    12.717698    35B2    12.717704    64A1    12.718784  
      28A2    12.718878    36B2    12.855178    65A1    12.856167  
      37B2    12.857260    66A1    12.857430    29A2    12.858295  
      54B1    12.858552    30A2    12.858689    67A1    12.859036  
      38B2    12.862662    55B1    12.864450    31A2    12.871520  
      56B1    12.872427    39B2    12.875114    57B1    12.876605  
      68A1    12.876958    69A1    12.878578    32A2    12.879933  
      40B2    12.880710    70A1    12.925417    58B1    12.927870  
      59B1    12.965275  

    Beta Occupied:                                                        

       1B1  -320.707196     1A1  -320.707186     2A1  -320.689133  
       2B1   -37.877624     3A1   -37.877468     4A1   -37.861641  
       3B1   -33.729326     5A1   -33.729317     4B1   -33.727261  
       6A1   -33.727247     1A2   -33.726182     1B2   -33.726175  
       7A1   -33.713509     5B1   -33.711442     2B2   -33.709366  
       8A1    -4.097501     6B1    -4.096911     9A1    -4.079305  
      10A1    -2.771388     7B1    -2.766796    11A1    -2.766545  
       3B2    -2.766320     8B1    -2.766072     2A2    -2.765938  
       9B1    -2.750017    12A1    -2.749799     4B2    -2.747210  
      13A1    -0.371097    14A1    -0.360386     5B2    -0.356490  
      10B1    -0.345136     6B2    -0.342771    15A1    -0.342307  
       3A2    -0.335098    11B1    -0.324151     4A2    -0.321247  
      12B1    -0.319558    16A1    -0.313497     5A2    -0.312104  
       7B2    -0.308278    17A1    -0.308218    13B1    -0.297045  
      18A1    -0.275622  

    Beta Virtual:                                                         

      14B1    -0.075113    19A1    -0.057947     8B2    -0.025582  
      20A1     0.026257    15B1     0.046671    21A1     0.048505  
       6A2     0.071164    16B1     0.078463     9B2     0.082612  
      22A1     0.089049    17B1     0.130070    23A1     0.137419  
      10B2     0.146054    24A1     0.148349    18B1     0.165074  
      25A1     0.166913     7A2     0.188563    11B2     0.193902  
      26A1     0.224989    19B1     0.237249    20B1     0.241924  
      12B2     0.246811    27A1     0.248080     8A2     0.248824  
      21B1     0.260553    28A1     0.266912    13B2     0.276420  
      22B1     0.335518    29A1     0.336006     9A2     0.357262  
      30A1     0.366199    10A2     0.387010    23B1     0.390732  
      31A1     0.392993    14B2     0.396030    24B1     0.489826  
      32A1     0.507368    25B1     0.522991    33A1     0.665624  
      15B2     0.667599    34A1     0.711056    26B1     0.726325  
      11A2     0.772903    16B2     0.773920    35A1     0.829129  
      27B1     0.830206    36A1     0.838628    17B2     0.847824  
      18B2     0.874777    12A2     0.891182    28B1     0.951865  
      37A1     0.960673    29B1     0.969625    38A1     0.982174  
      13A2     1.054846    39A1     1.059159    30B1     1.071665  
      19B2     1.097964    14A2     1.109477    40A1     1.245147  
      31B1     1.265454    32B1     1.302792    20B2     2.943792  
      33B1     2.996284    41A1     2.997685    15A2     3.045148  
      21B2     3.051151    42A1     3.055163    34B1     3.061410  
      43A1     3.078659    44A1     3.116663    35B1     3.198387  
      45A1     3.366705    22B2     3.377562    23B2     3.394110  
      16A2     3.402841    46A1     3.405280    36B1     3.407151  
      47A1     3.407480    24B2     3.410089    17A2     3.411220  
      37B1     3.412161    18A2     3.412901    38B1     3.416405  
      48A1     3.420965    19A2     3.424699    25B2     3.425617  
      39B1     3.429065    26B2     3.432410    49A1     3.442429  
      40B1     3.448547    50A1     3.458505    41B1     3.467747  
      51A1     3.514376    42B1     3.540877    20A2     3.621997  
      27B2     3.623199    52A1     3.625250    28B2     3.648814  
      43B1     3.680944    53A1     3.688522    21A2     3.705434  
      22A2     3.746818    29B2     3.755583    54A1     3.841347  
      44B1     3.846966    55A1     3.894371    45B1     3.943899  
      46B1     4.148217    56A1     4.154241    57A1    12.696033  
      30B2    12.696277    58A1    12.696306    47B1    12.696314  
      23A2    12.696578    48B1    12.696816    24A2    12.696847  
      31B2    12.696886    59A1    12.697469    49B1    12.697735  
      25A2    12.698375    32B2    12.698566    50B1    12.698707  
      60A1    12.699189    51B1    12.699852    61A1    12.699880  
      26A2    12.700022    33B2    12.700060    62A1    12.714135  
      52B1    12.714977    27A2    12.715622    34B2    12.715712  
      53B1    12.716948    63A1    12.717357    35B2    12.717415  
      64A1    12.717887    28A2    12.717900    36B2    12.855170  
      65A1    12.856489    37B2    12.857367    66A1    12.857421  
      29A2    12.858514    54B1    12.858646    30A2    12.859252  
      67A1    12.859382    38B2    12.863331    55B1    12.865224  
      31A2    12.871692    56B1    12.872775    39B2    12.875605  
      57B1    12.876971    68A1    12.877758    69A1    12.879830  
      32A2    12.880657    40B2    12.881753    70A1    12.926222  
      58B1    12.929079    59B1    12.965534  

    Final Occupation by Irrep:
             A1    A2    B1    B2 
    DOCC [    18,    5,   13,    7 ]
    SOCC [     1,    0,    0,    0 ]

  @DF-UKS Final Energy: -4922.36721138827852

   => Energetics <=

    Nuclear Repulsion Energy =            559.5410476897764056
    One-Electron Energy =               -7980.1699243746488719
    Two-Electron Energy =                2614.0762862083893197
    DFT Exchange-Correlation Energy =    -115.8145279317952827
    Empirical Dispersion Energy =          -0.0000929800000000
    VV10 Nonlocal Energy =                  0.0000000000000000
    Total Energy =                      -4922.3672113882776102

  UHF NO Occupations:
  HONO-2 :   13 B1 1.9985676
  HONO-1 :   18 A1 1.9930770
  HONO-0 :   19 A1 1.0000000
  LUNO+0 :   20 A1 0.0069230
  LUNO+1 :   14 B1 0.0014324
  LUNO+2 :   15 B1 0.0001981
  LUNO+3 :   21 A1 0.0001887


Computation Completed


Properties will be evaluated at   0.000000,   0.000000,   0.000000 [a0]

Properties computed using the SCF density matrix

  Nuclear Dipole Moment: [e a0]
     X:     0.0000      Y:     0.0000      Z:     0.0000

  Electronic Dipole Moment: [e a0]
     X:     0.0000      Y:     0.0000      Z:    -0.3321

  Dipole Moment: [e a0]
     X:     0.0000      Y:     0.0000      Z:    -0.3321     Total:     0.3321

  Dipole Moment: [D]
     X:     0.0000      Y:     0.0000      Z:    -0.8441     Total:     0.8441


*** tstop() called on bp1-compute00145.data.bp.acrc.priv at Fri Oct 29 08:45:23 2021
Module time:
	user time   =     324.47 seconds =       5.41 minutes
	system time =      15.30 seconds =       0.25 minutes
	total time  =         15 seconds =       0.25 minutes
Total time:
	user time   =    1350.70 seconds =      22.51 minutes
	system time =      65.74 seconds =       1.10 minutes
	total time  =         67 seconds =       1.12 minutes

*** tstart() called on bp1-compute00145.data.bp.acrc.priv
*** at Fri Oct 29 08:45:23 2021


         ------------------------------------------------------------
                                   SCF GRAD                          
                          Rob Parrish, Justin Turney,                
                       Andy Simmonett, and Alex Sokolov              
         ------------------------------------------------------------

  ==> Geometry <==

    Molecular point group: c2v
    Full point group: C2v

    Geometry (in Angstrom), charge = 0, multiplicity = 2:

       Center              X                  Y                   Z               Mass       
    ------------   -----------------  -----------------  -----------------  -----------------
         CU           0.000000000000    -0.000000000000     1.432173754746    62.929597720000
         CU           1.146794761603     0.000000000000    -0.716086877373    62.929597720000
         CU          -1.146794761603    -0.000000000000    -0.716086877373    62.929597720000

  Nuclear repulsion =  559.541047689776406

  ==> Basis Set <==

  Basis Set: DEF2-TZVPPD
    Blend: DEF2-TZVPPD
    Number of shells: 57
    Number of basis function: 201
    Number of Cartesian functions: 249
    Spherical Harmonics?: true
    Max angular momentum: 4

  ==> DFJKGrad: Density-Fitted SCF Gradients <==

    Gradient:                    1
    J tasked:                  Yes
    K tasked:                  Yes
    wK tasked:                  No
    OpenMP threads:             24
    Integrals threads:          24
    Memory [MiB]:           102996
    Schwarz Cutoff:          0E+00
    Fitting Condition:       1E-10

   => Auxiliary Basis Set <=

  Basis Set: (DEF2-TZVPPD AUX)
    Blend: DEF2-TZVPP-JKFIT
    Number of shells: 174
    Number of basis function: 792
    Number of Cartesian functions: 1131
    Spherical Harmonics?: true
    Max angular momentum: 6

  ==> DFT Potential <==

   => Composite Functional: MN15-D3BJ <= 

   MN15 Hybrid Meta-GGA Exchange-Correlation Functional

    H. S. Yu, X. He, S. L. Li, and D. G. Truhlar, Chem. Sci. 7, 5032-5051, 2016


    Deriv               =              1
    GGA                 =           TRUE
    Meta                =           TRUE

    Exchange Hybrid     =           TRUE
    MP2 Hybrid          =          FALSE

   => Exchange Functionals <=

    1.0000   XC_HYB_MGGA_X_MN15

   => Exact (HF) Exchange <=

    0.4400               HF 

   => Correlation Functionals <=

    1.0000   XC_MGGA_C_MN15

   => Molecular Quadrature <=

    Radial Scheme          =       TREUTLER
    Pruning Scheme         =           FLAT
    Nuclear Scheme         =       TREUTLER

    BS radius alpha        =              1
    Pruning alpha          =              1
    Radial Points          =             75
    Spherical Points       =            302
    Total Points           =          67950
    Total Blocks           =            596
    Max Points             =            256
    Max Functions          =            188


  -Total Gradient:
     Atom            X                  Y                   Z
    ------   -----------------  -----------------  -----------------
       1        0.000000000000    -0.000000000000    -0.002572279359
       2       -0.000209740517    -0.000000000000     0.001341104025
       3        0.000209740517     0.000000000000     0.001341104025


*** tstop() called on bp1-compute00145.data.bp.acrc.priv at Fri Oct 29 08:45:30 2021
Module time:
	user time   =      96.16 seconds =       1.60 minutes
	system time =       5.09 seconds =       0.08 minutes
	total time  =          7 seconds =       0.12 minutes
Total time:
	user time   =    1448.22 seconds =      24.14 minutes
	system time =      70.93 seconds =       1.18 minutes
	total time  =         74 seconds =       1.23 minutes

			-----------------------------------------
			 OPTKING 2.0: for geometry optimizations 
			  - R.A. King,  Bethel University        
			-----------------------------------------
	At level 1: Red. Int., RFO, no backsteps, dynamic trust

	Previous internal coordinate definitions found.
	---Fragment 1 Geometry and Gradient---
	 CU          0.0000000000       -0.0000000000        2.7064161605
	 CU          2.1671280215        0.0000000000       -1.3532080803
	 CU         -2.1671280215       -0.0000000000       -1.3532080803
	             0.0000000000       -0.0000000000       -0.0025722794
	            -0.0002097405       -0.0000000000        0.0013411040
	             0.0002097405        0.0000000000        0.0013411040

	---Fragment 1 Intrafragment Coordinates---
	 - Coordinate -           - BOHR/RAD -       - ANG/DEG -
	 R(1,2)           =         4.601847	       2.435192
	 R(1,3)           =         4.601847	       2.435192
	 R(2,3)           =         4.334256	       2.293590
	 B(1,2,3)         =         1.080456	      61.905595
	 B(1,3,2)         =         1.080456	      61.905595
	 B(2,1,3)         =         0.980680	      56.188809

	Current energy   :     -4922.3672113883

	Energy change for the previous step:
		Projected    :        -0.0039037082
		Actual       :        -0.0011162833

	Performing BFGS update.
	Previous computed or guess Hessian on step 1.
	Steps to be used in Hessian update: 2 1
	Taking RFO optimization step.
	Going to follow RFO solution 1.
	Using RFO vector 1.
	Norm of target step-size    0.04579
	Projected energy change by RFO approximation:        -0.0002004116

	Back-transformation to cartesian coordinates...
	Successfully converged to displaced geometry.

	--- Internal Coordinate Step in ANG or DEG, aJ/ANG or AJ/DEG ---
	 ---------------------------------------------------------------------------
	   Coordinate                Previous        Force       Change         New 
	   ----------                --------       ------       ------       ------
	    1 R(1,2)          =      2.435192     0.011596     0.016174     2.451366
	    2 R(1,3)          =      2.435192     0.011596     0.016174     2.451366
	    3 R(2,3)          =      2.293590    -0.002763    -0.005161     2.288428
	    4 B(1,2,3)        =     61.905595     0.000016     0.269832    62.175427
	    5 B(1,3,2)        =     61.905595     0.000016     0.269832    62.175427
[...]
      40App    3.408122    41App    3.409832    84Ap     3.410735  
      42App    3.412988    85Ap     3.414556    86Ap     3.416236  
      43App    3.420269    44App    3.420544    87Ap     3.423853  
      45App    3.427377    88Ap     3.434786    89Ap     3.438731  
      90Ap     3.451153    91Ap     3.464853    92Ap     3.504077  
      93Ap     3.539613    46App    3.616255    47App    3.617501  
      94Ap     3.619216    48App    3.646070    95Ap     3.674770  
      96Ap     3.680007    49App    3.698191    50App    3.745143  
      51App    3.747618    97Ap     3.826042    98Ap     3.832730  
      99Ap     3.890376   100Ap     3.932165   101Ap     4.140141  
     102Ap     4.140466   103Ap    12.696423   104Ap    12.696673  
     105Ap    12.696841    52App   12.696862    53App   12.697083  
     106Ap    12.697177    54App   12.697361    55App   12.697412  
     107Ap    12.698025   108Ap    12.698436    56App   12.698764  
      57App   12.698912   109Ap    12.699010   110Ap    12.699338  
     111Ap    12.700395   112Ap    12.700446    58App   12.700581  
      59App   12.700645   113Ap    12.715040   114Ap    12.715916  
      60App   12.716682    61App   12.717039   115Ap    12.718171  
      62App   12.718454   116Ap    12.718473   117Ap    12.719496  
      63App   12.719597    64App   12.855382   118Ap    12.856300  
     119Ap    12.857450    65App   12.857517    66App   12.858576  
     120Ap    12.858887    67App   12.859045   121Ap    12.859196  
      68App   12.862622   122Ap    12.865220    69App   12.872258  
     123Ap    12.872936    70App   12.875935   124Ap    12.877206  
     125Ap    12.877386   126Ap    12.878841    71App   12.880256  
      72App   12.880915   127Ap    12.920396   128Ap    12.923471  
     129Ap    12.967060  

    Beta Occupied:                                                        

       1Ap  -320.706947     2Ap  -320.706890     3Ap  -320.688331  
       4Ap   -37.877307     5Ap   -37.877144     6Ap   -37.860658  
       7Ap   -33.729018     8Ap   -33.728969     9Ap   -33.726981  
      10Ap   -33.726931     1App  -33.725905     2App  -33.725852  
      11Ap   -33.712547    12Ap   -33.710478     3App  -33.708480  
      13Ap    -4.097200    14Ap    -4.096594    15Ap    -4.078397  
      16Ap    -2.771151    17Ap    -2.766458    18Ap    -2.766177  
       4App   -2.766035    19Ap    -2.765730     5App   -2.765640  
      20Ap    -2.749149    21Ap    -2.748867     6App   -2.746461  
      22Ap    -0.370028    23Ap    -0.360124     7App   -0.355936  
      24Ap    -0.343675     8App   -0.342287    25Ap    -0.341727  
       9App   -0.334320    26Ap    -0.323612    10App   -0.320840  
      27Ap    -0.319180    28Ap    -0.313036    11App   -0.311750  
      29Ap    -0.308057    12App   -0.308007    30Ap    -0.297122  
      31Ap    -0.274821  

    Beta Virtual:                                                         

      32Ap    -0.074845    33Ap    -0.058623    13App   -0.025368  
      34Ap     0.026410    35Ap     0.046483    36Ap     0.047569  
      14App    0.071201    37Ap     0.078485    15App    0.081995  
      38Ap     0.089108    39Ap     0.129840    40Ap     0.137551  
      16App    0.146177    41Ap     0.148361    42Ap     0.165274  
      43Ap     0.166677    17App    0.188833    18App    0.193580  
      44Ap     0.224415    45Ap     0.237183    46Ap     0.241329  
      19App    0.246509    47Ap     0.247759    20App    0.248309  
      48Ap     0.260412    49Ap     0.265353    21App    0.275727  
      50Ap     0.334938    51Ap     0.335214    22App    0.356773  
      52Ap     0.366498    23App    0.386898    53Ap     0.390472  
      54Ap     0.392318    24App    0.394994    55Ap     0.488045  
      56Ap     0.503666    57Ap     0.523818    58Ap     0.665659  
      25App    0.669959    59Ap     0.709310    60Ap     0.727595  
      26App    0.772790    27App    0.773154    61Ap     0.829904  
      62Ap     0.830269    63Ap     0.838305    28App    0.847300  
      29App    0.874547    30App    0.893523    64Ap     0.948768  
      65Ap     0.959995    66Ap     0.966379    67Ap     0.981432  
      31App    1.052969    68Ap     1.055494    69Ap     1.071732  
      32App    1.094310    33App    1.109694    70Ap     1.238287  
      71Ap     1.260895    72Ap     1.303967    34App    2.944422  
      73Ap     2.989168    74Ap     2.991684    35App    3.045502  
      36App    3.050050    75Ap     3.054525    76Ap     3.062298  
      77Ap     3.077394    78Ap     3.127600    79Ap     3.202761  
      80Ap     3.368115    37App    3.377552    38App    3.394618  
      39App    3.404318    81Ap     3.404638    82Ap     3.406791  
      83Ap     3.407253    40App    3.410390    41App    3.411611  
      84Ap     3.412549    42App    3.413403    85Ap     3.417075  
      86Ap     3.422338    43App    3.425942    44App    3.426804  
      87Ap     3.429457    45App    3.433139    88Ap     3.439215  
      89Ap     3.446102    90Ap     3.458299    91Ap     3.465553  
      92Ap     3.508504    93Ap     3.541572    46App    3.620118  
      47App    3.620659    94Ap     3.623715    48App    3.647785  
      95Ap     3.680433    96Ap     3.687873    49App    3.704658  
      50App    3.746309    51App    3.754043    97Ap     3.827996  
      98Ap     3.837326    99Ap     3.895036   100Ap     3.940580  
     101Ap     4.140790   102Ap     4.143041   103Ap    12.696324  
      52App   12.696539   104Ap    12.696569   105Ap    12.696630  
      53App   12.696869   106Ap    12.697108    54App   12.697125  
      55App   12.697193   107Ap    12.697683   108Ap    12.698002  
      56App   12.698652    57App   12.698834   109Ap    12.698993  
     110Ap    12.699441   111Ap    12.700135   112Ap    12.700203  
      58App   12.700307    59App   12.700377   113Ap    12.715016  
     114Ap    12.715795    60App   12.716388    61App   12.716568  
     115Ap    12.717698   116Ap    12.718119    62App   12.718149  
     117Ap    12.718588    63App   12.718611    64App   12.855364  
     118Ap    12.856598   119Ap    12.857484    65App   12.857632  
      66App   12.858818   120Ap    12.858981   121Ap    12.859513  
      67App   12.859581    68App   12.863284   122Ap    12.865980  
      69App   12.872435   123Ap    12.873296    70App   12.876424  
     124Ap    12.877581   125Ap    12.878178   126Ap    12.880075  
      71App   12.880975    72App   12.881966   127Ap    12.921217  
     128Ap    12.924674   129Ap    12.967315  

    Final Occupation by Irrep:
             Ap   App 
    DOCC [    31,   12 ]
    SOCC [     1,    0 ]

  @DF-UKS Final Energy: -4922.36727500009783

   => Energetics <=

    Nuclear Repulsion Energy =            556.6417572252898935
    One-Electron Energy =               -7974.4162609911909385
    Two-Electron Energy =                2611.2205691407230006
    DFT Exchange-Correlation Energy =    -115.8132473949202108
    Empirical Dispersion Energy =          -0.0000929800000000
    VV10 Nonlocal Energy =                  0.0000000000000000
    Total Energy =                      -4922.3672750000969245

  UHF NO Occupations:
  HONO-2 :   30 Ap 1.9985947
  HONO-1 :   31 Ap 1.9929935
  HONO-0 :   32 Ap 1.0000000
  LUNO+0 :   33 Ap 0.0070065
  LUNO+1 :   34 Ap 0.0014053
  LUNO+2 :   35 Ap 0.0001940
  LUNO+3 :   36 Ap 0.0001866


Computation Completed


Properties will be evaluated at   0.000000,   0.000000,   0.000000 [a0]

Properties computed using the SCF density matrix

  Nuclear Dipole Moment: [e a0]
     X:     0.0000      Y:     0.0000      Z:    -0.0000

  Electronic Dipole Moment: [e a0]
     X:    -0.0008      Y:     0.0000      Z:    -0.3367

  Dipole Moment: [e a0]
     X:    -0.0008      Y:     0.0000      Z:    -0.3367     Total:     0.3367

  Dipole Moment: [D]
     X:    -0.0020      Y:     0.0000      Z:    -0.8558     Total:     0.8558


*** tstop() called on bp1-compute00145.data.bp.acrc.priv at Fri Oct 29 08:49:48 2021
Module time:
	user time   =     595.77 seconds =       9.93 minutes
	system time =      25.29 seconds =       0.42 minutes
	total time  =         26 seconds =       0.43 minutes
Total time:
	user time   =    6618.39 seconds =     110.31 minutes
	system time =     302.45 seconds =       5.04 minutes
	total time  =        332 seconds =       5.53 minutes

*** tstart() called on bp1-compute00145.data.bp.acrc.priv
*** at Fri Oct 29 08:49:48 2021


         ------------------------------------------------------------
                                   SCF GRAD                          
                          Rob Parrish, Justin Turney,                
                       Andy Simmonett, and Alex Sokolov              
         ------------------------------------------------------------

  ==> Geometry <==

    Molecular point group: cs
    Full point group: Cs

    Geometry (in Angstrom), charge = 0, multiplicity = 2:

       Center              X                  Y                   Z               Mass       
    ------------   -----------------  -----------------  -----------------  -----------------
         CU          -0.000183509001     0.000000000000     1.449384313778    62.929597720000
         CU           1.144822460472     0.000000000000    -0.724866417350    62.929597720000
         CU          -1.144638951471     0.000000000000    -0.724517896428    62.929597720000

  Nuclear repulsion =  556.641757225289894

  ==> Basis Set <==

  Basis Set: DEF2-TZVPPD
    Blend: DEF2-TZVPPD
    Number of shells: 57
    Number of basis function: 201
    Number of Cartesian functions: 249
    Spherical Harmonics?: true
    Max angular momentum: 4

  ==> DFJKGrad: Density-Fitted SCF Gradients <==

    Gradient:                    1
    J tasked:                  Yes
    K tasked:                  Yes
    wK tasked:                  No
    OpenMP threads:             24
    Integrals threads:          24
    Memory [MiB]:           102996
    Schwarz Cutoff:          0E+00
    Fitting Condition:       1E-10

   => Auxiliary Basis Set <=

  Basis Set: (DEF2-TZVPPD AUX)
    Blend: DEF2-TZVPP-JKFIT
    Number of shells: 174
    Number of basis function: 792
    Number of Cartesian functions: 1131
    Spherical Harmonics?: true
    Max angular momentum: 6

  ==> DFT Potential <==

   => Composite Functional: MN15-D3BJ <= 

   MN15 Hybrid Meta-GGA Exchange-Correlation Functional

    H. S. Yu, X. He, S. L. Li, and D. G. Truhlar, Chem. Sci. 7, 5032-5051, 2016


    Deriv               =              1
    GGA                 =           TRUE
    Meta                =           TRUE

    Exchange Hybrid     =           TRUE
    MP2 Hybrid          =          FALSE

   => Exchange Functionals <=

    1.0000   XC_HYB_MGGA_X_MN15

   => Exact (HF) Exchange <=

    0.4400               HF 

   => Correlation Functionals <=

    1.0000   XC_MGGA_C_MN15

   => Molecular Quadrature <=

    Radial Scheme          =       TREUTLER
    Pruning Scheme         =           FLAT
    Nuclear Scheme         =       TREUTLER

    BS radius alpha        =              1
    Pruning alpha          =              1
    Radial Points          =             75
    Spherical Points       =            302
    Total Points           =          67950
    Total Blocks           =            595
    Max Points             =            254
    Max Functions          =            191


  -Total Gradient:
     Atom            X                  Y                   Z
    ------   -----------------  -----------------  -----------------
       1        0.000012934084     0.000000000000     0.000000423371
       2       -0.000137084681     0.000000000000     0.000063491724
       3        0.000126040039     0.000000000000     0.000045773816


*** tstop() called on bp1-compute00145.data.bp.acrc.priv at Fri Oct 29 08:49:55 2021
Module time:
	user time   =      98.16 seconds =       1.64 minutes
	system time =       5.05 seconds =       0.08 minutes
	total time  =          7 seconds =       0.12 minutes
Total time:
	user time   =    6718.07 seconds =     111.97 minutes
	system time =     307.61 seconds =       5.13 minutes
	total time  =        339 seconds =       5.65 minutes

         ----------------------------------------------------------
                                   FINDIF
                     R. A. King and Jonathon Misiewicz
         ---------------------------------------------------------

  Computing second-derivative from gradients using projected, 
  symmetry-adapted, cartesian coordinates.

  6 gradients passed in, including the reference geometry.
  Generating complete list of displacements from unique ones.

    Operation 2 takes plus displacements of irrep B1 to minus ones.

-------------------------------------------------------------


  ==> Harmonic Vibrational Analysis <==

  non-mass-weighted Hessian:       Symmetric? True   Hermitian? True   Lin Dep Dim?  6 (0)
  projection of translations (True) and rotations (True) removed 6 degrees of freedom (6)
  total projector:                 Symmetric? True   Hermitian? True   Lin Dep Dim?  6 (6)
  mass-weighted Hessian:           Symmetric? True   Hermitian? True   Lin Dep Dim?  6 (0)
  pre-proj  low-frequency mode:    0.0000i [cm^-1]
  pre-proj  low-frequency mode:    0.0000i [cm^-1]
  pre-proj  low-frequency mode:    0.0000i [cm^-1]
  pre-proj  low-frequency mode:    0.0000i [cm^-1]
  pre-proj  low-frequency mode:    0.0000  [cm^-1]
  pre-proj  low-frequency mode:    0.0000  [cm^-1]
  pre-proj  low-frequency mode:    0.0000  [cm^-1]
  pre-proj  all modes:['113.7195i' '0.0000i' '0.0000i' '0.0000i' '0.0000' '0.0000' '0.0000'
 '174.1228' '256.2753']
  projected mass-weighted Hessian: Symmetric? True   Hermitian? True   Lin Dep Dim?  6 (6)
  post-proj low-frequency mode:  113.7195i [cm^-1] (V)
  post-proj low-frequency mode:    0.0000i [cm^-1] (TR)
  post-proj low-frequency mode:    0.0000i [cm^-1] (TR)
  post-proj low-frequency mode:    0.0000  [cm^-1] (TR)
  post-proj low-frequency mode:    0.0000  [cm^-1] (TR)
  post-proj low-frequency mode:    0.0000  [cm^-1] (TR)
  post-proj low-frequency mode:    0.0000  [cm^-1] (TR)
  post-proj  all modes:['113.7195i' '0.0000i' '0.0000i' '0.0000' '0.0000' '0.0000' '0.0000'
 '174.1228' '256.2753']

  Vibration                       1                   8                   9           
  Freq [cm^-1]                113.7195i            174.1228            256.2753       
  Irrep                           B1                  A1                  A1          
  Reduced mass [u]             62.9296             62.9296             62.9296        
  Force const [mDyne/A]        -0.4795              1.1241              2.4351        
  Turning point v=0 [a0]        0.0000              0.1048              0.0864        
  RMS dev v=0 [a0 u^1/2]        0.0000              0.5880              0.4847        
  Char temp [K]                 0.0000             250.5239            368.7231       
  ----------------------------------------------------------------------------------
      1   CU               0.55 -0.00 -0.00    0.00 -0.00  0.79    0.00 -0.00  0.22   
      2   CU              -0.28 -0.00  0.52   -0.19 -0.00 -0.39    0.68  0.00 -0.11   
      3   CU              -0.28  0.00 -0.52    0.19 -0.00 -0.39   -0.68 -0.00 -0.11   

  ==> Thermochemistry Components <==

  Entropy, S
    Electronic S            1.377 [cal/(mol K)]        5.763 [J/(mol K)]       0.00219507 [mEh/K] (multiplicity = 2)
    Translational S        41.612 [cal/(mol K)]      174.105 [J/(mol K)]       0.06631321 [mEh/K] (mol. weight = 188.7888 [u], P = 101325.00 [Pa])
    Rotational S           26.406 [cal/(mol K)]      110.481 [J/(mol K)]       0.04208012 [mEh/K] (symmetry no. = 2)
    Vibrational S           4.078 [cal/(mol K)]       17.060 [J/(mol K)]       0.00649794 [mEh/K]
  Total S                  73.473 [cal/(mol K)]      307.410 [J/(mol K)]       0.11708634 [mEh/K]
  Correction S              0.000 [cal/(mol K)]        0.000 [J/(mol K)]       0.00000000 [mEh/K]

  Constant volume heat capacity, Cv
    Electronic Cv           0.000 [cal/(mol K)]        0.000 [J/(mol K)]       0.00000000 [mEh/K]
    Translational Cv        2.981 [cal/(mol K)]       12.472 [J/(mol K)]       0.00475022 [mEh/K]
    Rotational Cv           2.981 [cal/(mol K)]       12.472 [J/(mol K)]       0.00475022 [mEh/K]
    Vibrational Cv          3.626 [cal/(mol K)]       15.173 [J/(mol K)]       0.00577916 [mEh/K]
  Total Cv                  9.588 [cal/(mol K)]       40.117 [J/(mol K)]       0.01527959 [mEh/K]
  Correction Cv             0.000 [cal/(mol K)]        0.000 [J/(mol K)]       0.00000000 [mEh/K]

  Constant pressure heat capacity, Cp
    Electronic Cp           0.000 [cal/(mol K)]        0.000 [J/(mol K)]       0.00000000 [mEh/K]
    Translational Cp        4.968 [cal/(mol K)]       20.786 [J/(mol K)]       0.00791703 [mEh/K]
    Rotational Cp           2.981 [cal/(mol K)]       12.472 [J/(mol K)]       0.00475022 [mEh/K]
    Vibrational Cp          3.626 [cal/(mol K)]       15.173 [J/(mol K)]       0.00577916 [mEh/K]
  Total Cp                 11.575 [cal/(mol K)]       48.431 [J/(mol K)]       0.01844640 [mEh/K]
  Correction Cp             0.000 [cal/(mol K)]        0.000 [J/(mol K)]       0.00000000 [mEh/K]

  ==> Thermochemistry Energy Analysis <==

  Raw electronic energy, E0
  Total E0, Electronic energy at well bottom at 0 [K]                -4922.36727499 [Eh]

  Zero-point energy, ZPE_vib = Sum_i nu_i / 2
    Electronic ZPE          0.000 [kcal/mol]        0.000 [kJ/mol]       0.00000000 [Eh]
    Translational ZPE       0.000 [kcal/mol]        0.000 [kJ/mol]       0.00000000 [Eh]
    Rotational ZPE          0.000 [kcal/mol]        0.000 [kJ/mol]       0.00000000 [Eh]
    Vibrational ZPE         0.615 [kcal/mol]        2.574 [kJ/mol]       0.00098052 [Eh]         215.199 [cm^-1]
  Correction ZPE            0.615 [kcal/mol]        2.574 [kJ/mol]       0.00098052 [Eh]         215.199 [cm^-1]
  Total ZPE, Electronic energy at 0 [K]                              -4922.36629448 [Eh]

  Thermal Energy, E (includes ZPE)
    Electronic E            0.000 [kcal/mol]        0.000 [kJ/mol]       0.00000000 [Eh]
    Translational E         0.889 [kcal/mol]        3.718 [kJ/mol]       0.00141628 [Eh]
    Rotational E            0.889 [kcal/mol]        3.718 [kJ/mol]       0.00141628 [Eh]
    Vibrational E           1.293 [kcal/mol]        5.410 [kJ/mol]       0.00206066 [Eh]
  Correction E              3.071 [kcal/mol]       12.847 [kJ/mol]       0.00489321 [Eh]
  Total E, Electronic energy at  298.15 [K]                          -4922.36238178 [Eh]

  Enthalpy, H_trans = E_trans + k_B * T
    Electronic H            0.000 [kcal/mol]        0.000 [kJ/mol]       0.00000000 [Eh]
    Translational H         1.481 [kcal/mol]        6.197 [kJ/mol]       0.00236046 [Eh]
    Rotational H            0.889 [kcal/mol]        3.718 [kJ/mol]       0.00141628 [Eh]
    Vibrational H           1.293 [kcal/mol]        5.410 [kJ/mol]       0.00206066 [Eh]
  Correction H              3.663 [kcal/mol]       15.326 [kJ/mol]       0.00583740 [Eh]
  Total H, Enthalpy at  298.15 [K]                                   -4922.36143760 [Eh]

  Gibbs free energy, G = H - T * S
    Electronic G           -0.411 [kcal/mol]       -1.718 [kJ/mol]      -0.00065446 [Eh]
    Translational G       -10.925 [kcal/mol]      -45.712 [kJ/mol]      -0.01741082 [Eh]
    Rotational G           -6.984 [kcal/mol]      -29.222 [kJ/mol]      -0.01112991 [Eh]
    Vibrational G           0.077 [kcal/mol]        0.324 [kJ/mol]       0.00012330 [Eh]
  Correction G            -18.243 [kcal/mol]      -76.328 [kJ/mol]      -0.02907190 [Eh]
  Total G, Free enthalpy at  298.15 [K]                              -4922.39634689 [Eh]

    Psi4 stopped on: Friday, 29 October 2021 08:49AM
    Psi4 wall time for execution: 0:05:39.67

*** Psi4 exiting successfully. Buy a developer a beer!
