Optimizer: Optimization complete!
 6 displacements needed.
 1 2 3 4 5 6
Warning: thermodynamics relations excluded imaginary frequencies: ['25.3145i' '25.3143i']
Warning: used thermodynamics relations inappropriate for low-frequency modes: ['152.8686' '248.7110']
At level 1: Red. Int., RFO, no backsteps, dynamic trust
At level 1: Red. Int., RFO, no backsteps, dynamic trust
At level 1: Red. Int., RFO, no backsteps, dynamic trust
At level 1: Red. Int., RFO, no backsteps, dynamic trust
ow, X. Wang, B. P. Pritchard,
    P. Verma, H. F. Schaefer III, K. Patkowski, R. A. King, E. F. Valeev,
    F. A. Evangelista, J. M. Turney, T. D. Crawford, and C. D. Sherrill,
    J. Chem. Theory Comput. 13(7) pp 3185--3197 (2017).
    (doi: 10.1021/acs.jctc.7b00174)


                         Additional Contributions by
    P. Kraus, H. Kruse, M. H. Lechner, M. C. Schieber, R. A. Shaw,
    A. Alenaizan, R. Galvelis, Z. L. Glick, S. Lehtola, and J. P. Misiewicz

    -----------------------------------------------------------------------


    Psi4 started on: Friday, 29 October 2021 08:44AM

    Process ID: 58806
    Host:       bp1-compute00115.data.bp.acrc.priv
    PSIDATADIR: /work/zw18965/.conda/envs/p4env/share/psi4
    Memory:     500.0 MiB
    Threads:    24
    
  ==> Input File <==

--------------------------------------------------------------------------
memory 144 GB

molecule {
0 2
Cu       0.000000    0.000000    0.000000 
Cu       0.000000    0.000000    2.291099 
Cu       0.000000    0.000000   -2.291099 
 }

set reference uks
set dynamic_level 1
set basis Def2-TZVPPD

optimize("MN15-D3BJ")
frequencies("MN15-D3BJ")
--------------------------------------------------------------------------

  Memory set to 134.110 GiB by Python driver.
gradient() will perform analytic gradient computation.

*** tstart() called on bp1-compute00115.data.bp.acrc.priv
*** at Fri Oct 29 08:44:38 2021

   => Loading Basis Set <=

    Name: DEF2-TZVPPD
    Role: ORBITAL
    Keyword: BASIS
    atoms 1-3 entry CU         line  1290 file /work/zw18965/.conda/envs/p4env/share/psi4/basis/def2-tzvppd.gbs 


         ---------------------------------------------------------
                                   SCF
               by Justin Turney, Rob Parrish, Andy Simmonett
                          and Daniel G. A. Smith
                              UKS Reference
                       24 Threads, 137329 MiB Core
         ---------------------------------------------------------

  ==> Geometry <==

    Molecular point group: d2h
    Full point group: D_inf_h

    Geometry (in Angstrom), charge = 0, multiplicity = 2:

       Center              X                  Y                   Z               Mass       
    ------------   -----------------  -----------------  -----------------  -----------------
         CU           0.000000000000     0.000000000000     0.000000000000    62.929597720000
         CU           0.000000000000     0.000000000000     2.291099000000    62.929597720000
         CU           0.000000000000     0.000000000000    -2.291099000000    62.929597720000

  Running in d2h symmetry.

  Rotational constants: A = ************  B =      0.02552  C =      0.02552 [cm^-1]
  Rotational constants: A = ************  B =    764.97023  C =    764.97023 [MHz]
  Nuclear repulsion =  485.616328859501607

  Charge       = 0
  Multiplicity = 2
  Electrons    = 87
  Nalpha       = 44
  Nbeta        = 43

  ==> Algorithm <==

  SCF Algorithm Type is DF.
  DIIS enabled.
  MOM disabled.
  Fractional occupation disabled.
  Guess Type is SAD.
  Energy threshold   = 1.00e-08
  Density threshold  = 1.00e-08
  Integral threshold = 0.00e+00

  ==> Primary Basis <==

  Basis Set: DEF2-TZVPPD
    Blend: DEF2-TZVPPD
    Number of shells: 57
    Number of basis function: 201
    Number of Cartesian functions: 249
    Spherical Harmonics?: true
    Max angular momentum: 4

  ==> DFT Potential <==

   => Composite Functional: MN15-D3BJ <= 

   MN15 Hybrid Meta-GGA Exchange-Correlation Functional

    H. S. Yu, X. He, S. L. Li, and D. G. Truhlar, Chem. Sci. 7, 5032-5051, 2016


    Deriv               =              1
    GGA                 =           TRUE
    Meta                =           TRUE

    Exchange Hybrid     =           TRUE
    MP2 Hybrid          =          FALSE

   => Exchange Functionals <=

    1.0000   XC_HYB_MGGA_X_MN15

   => Exact (HF) Exchange <=

    0.4400               HF 

   => Correlation Functionals <=

    1.0000   XC_MGGA_C_MN15

   => Molecular Quadrature <=

    Radial Scheme          =       TREUTLER
    Pruning Scheme         =           FLAT
    Nuclear Scheme         =       TREUTLER

    BS radius alpha        =              1
    Pruning alpha          =              1
    Radial Points          =             75
    Spherical Points       =            302
    Total Points           =          67950
    Total Blocks           =            622
    Max Points             =            253
    Max Functions          =            170

   => MN15-D3(BJ): Empirical Dispersion <=

    Grimme's -D3 (BJ-damping) Dispersion Correction
    Grimme S.; Ehrlich S.; Goerigk L. (2011), J. Comput. Chem., 32: 1456
    Parametrisation from:    L. Goerigk, A. Hansen, C. Bauer, S. Ehrlich, A. Najibi, S. Grimme, Phys. Chem. Chem. Phys. 19, 32184-32215, 2017

        s6 =       1.000000
        s8 =       2.097100
        a1 =       0.786200
        a2 =       7.592300

   => Loading Basis Set <=

    Name: (DEF2-TZVPPD AUX)
    Role: JKFIT
    Keyword: DF_BASIS_SCF
    atoms 1-3 entry CU         line  2361 file /work/zw18965/.conda/envs/p4env/share/psi4/basis/def2-tzvpp-jkfit.gbs 

  ==> Pre-Iterations <==

   -------------------------------------------------------
    Irrep   Nso     Nmo     Nalpha   Nbeta   Ndocc  Nsocc
   -------------------------------------------------------
     Ag        44      44       0       0       0       0
     B1g       14      14       0       0       0       0
     B2g       22      22       0       0       0       0
     B3g       22      22       0       0       0       0
     Au        10      10       0       0       0       0
     B1u       37      37       0       0       0       0
     B2u       26      26       0       0       0       0
     B3u       26      26       0       0       0       0
   -------------------------------------------------------
    Total     201     201      44      43      43       1
   -------------------------------------------------------

  ==> Integral Setup <==

  DFHelper Memory: AOs need 0.225 GiB; user supplied 99.975 GiB. Using in-core AOs.

  ==> MemDFJK: Density-Fitted J/K Matrices <==

    J tasked:                   Yes
    K tasked:                   Yes
    wK tasked:                   No
    OpenMP threads:              24
    Memory [MiB]:            102374
    Algorithm:                 Core
    Schwarz Cutoff:           1E-12
    Mask sparsity (%):      15.3957
    Fitting Condition:        1E-10

   => Auxiliary Basis Set <=

  Basis Set: (DEF2-TZVPPD AUX)
    Blend: DEF2-TZVPP-JKFIT
    Number of shells: 174
    Number of basis function: 792
    Number of Cartesian functions: 1131
    Spherical Harmonics?: true
    Max angular momentum: 6

  Cached 100.0% of DFT collocation blocks in 0.608 [GiB].

  Minimum eigenvalue in the overlap matrix is 3.3211269377E-04.
  Using Symmetric Orthogonalization.

  SCF Guess: Superposition of Atomic Densities via on-the-fly atomic UHF.

  ==> Iterations <==

                           Total Energy        Delta E     RMS |[F,P]|

   @DF-UKS iter SAD: -4914.94911356425018   -4.91495e+03   0.00000e+00 
    Occupation by irrep:
             Ag   B1g   B2g   B3g    Au   B1u   B2u   B3u 
    DOCC [    13,    1,    3,    3,    0,   10,    7,    6 ]
    SOCC [     0,    0,    0,    0,    0,    0,    0,    1 ]

   @DF-UKS iter   1: -4913.44565871244049    1.50345e+00   9.66336e-02 DIIS
    Occupation by irrep:
             Ag   B1g   B2g   B3g    Au   B1u   B2u   B3u 
    DOCC [    13,    2,    4,    4,    1,    9,    5,    5 ]
    SOCC [     0,    0,    0,    0,    0,    1,    0,    0 ]

   @DF-UKS iter   2: -4781.07107965555406    1.32375e+02   2.16818e-01 DIIS
    Occupation by irrep:
             Ag   B1g   B2g   B3g    Au   B1u   B2u   B3u 
    DOCC [    12,    1,    3,    3,    1,   11,    6,    6 ]
    SOCC [     0,    0,    1,    0,    0,    0,    0,    0 ]

   @DF-UKS iter   3: -4919.59790213679116   -1.38527e+02   4.47790e-02 DIIS
    Occupation by irrep:
             Ag   B1g   B2g   B3g    Au   B1u   B2u   B3u 
    DOCC [    13,    2,    4,    4,    1,    9,    5,    5 ]
    SOCC [     0,    0,    0,    0,    0,    1,    0,    0 ]

   @DF-UKS iter   4: -4882.53757380652132    3.70603e+01   8.80334e-02 DIIS
   @DF-UKS iter   5: -4919.33801875868994   -3.68004e+01   5.45802e-02 DIIS
   @DF-UKS iter   6: -4921.94873215958614   -2.61071e+00   1.91099e-02 DIIS
   @DF-UKS iter   7: -4922.31833103021654   -3.69599e-01   4.28693e-03 DIIS
   @DF-UKS iter   8: -4922.35326948051807   -3.49385e-02   1.69665e-03 DIIS
   @DF-UKS iter   9: -4922.35703559226295   -3.76611e-03   5.84492e-04 DIIS
   @DF-UKS iter  10: -4922.35762046478794   -5.84873e-04   1.27017e-04 DIIS
   @DF-UKS iter  11: -4922.35769283455284   -7.23698e-05   4.29843e-05 DIIS
   @DF-UKS iter  12: -4922.35770529858382   -1.24640e-05   1.47165e-05 DIIS
   @DF-UKS iter  13: -4922.35770621895699   -9.20373e-07   2.10097e-06 DIIS
   @DF-UKS iter  14: -4922.35770626935118   -5.03942e-08   5.52249e-07 DIIS
   @DF-UKS iter  15: -4922.35770627461534   -5.26416e-09   1.02141e-07 DIIS
   @DF-UKS iter  16: -4922.35770627467991   -6.45741e-11   4.02177e-08 DIIS
   @DF-UKS iter  17: -4922.35770627469356   -1.36424e-11   1.02555e-08 DIIS
   @DF-UKS iter  18: -4922.35770627469174    1.81899e-12   4.86428e-09 DIIS
  Energy and wave function converged.


  ==> Post-Iterations <==

   @Spin Contamination Metric:   2.797731140E-02
   @S^2 Expected:                7.500000000E-01
   @S^2 Observed:                7.779773114E-01
   @S   Expected:                5.000000000E-01
   @S   Observed:                5.000000000E-01

    Orbital Energies [Eh]
    ---------------------

    Alpha Occupied:                                                       

       1B1u -320.697933     1Ag  -320.697926     2Ag  -320.685875  
       2B1u  -37.866320     3Ag   -37.866220     4Ag   -37.858627  
       5Ag   -33.718088     3B1u  -33.718083     1B3g  -33.715645  
       1B2g  -33.715645     1B2u  -33.715641     1B3u  -33.715641  
       4B1u  -33.710721     2B2u  -33.706662     2B3u  -33.706662  
       5B1u   -4.087778     6Ag    -4.087739     7Ag    -4.076695  
       6B1u   -2.759919     8Ag    -2.758859     3B3u   -2.756089  
       3B2u   -2.756089     2B2g   -2.756085     2B3g   -2.756085  
       7B1u   -2.748211     4B2u   -2.744687     4B3u   -2.744687  
       9Ag    -0.365268     3B2g   -0.345741     3B3g   -0.345741  
       8B1u   -0.330395     5B3u   -0.329485     5B2u   -0.329485  
      10Ag    -0.327764     1B1g   -0.327761     9B1u   -0.326050  
       1Au    -0.326048    11Ag    -0.310773     2B1g   -0.310770  
       4B2g   -0.297037     4B3g   -0.297037    12Ag    -0.294111  
      13Ag    -0.264355    10B1u   -0.218467  

    Alpha Virtual:                                                        

      14Ag    -0.052393     6B3u   -0.025846     6B2u   -0.025846  
      11B1u    0.012659     5B2g    0.018348     5B3g    0.018348  
      15Ag     0.091348    12B1u    0.092833     7B3u    0.094910  
       7B2u    0.094910    16Ag     0.118895     8B3u    0.156326  
       8B2u    0.156326    13B1u    0.160945     6B2g    0.172012  
       6B3g    0.172012    17Ag     0.182257     3B1g    0.182262  
      14B1u    0.221313     2Au     0.221316    18Ag     0.224292  
       9B3u    0.230767     9B2u    0.230767    19Ag     0.245145  
       7B2g    0.260198     7B3g    0.260198    15B1u    0.278863  
      20Ag     0.320980     4B1g    0.320984    16B1u    0.330312  
      10B3u    0.376431    10B2u    0.376431    21Ag     0.404836  
       8B2g    0.495663     8B3g    0.495663    22Ag     0.536375  
      17B1u    0.593505    18B1u    0.643000    11B3u    0.692992  
      11B2u    0.692992     9B2g    0.720185     9B3g    0.720185  
      12B3u    0.791330    12B2u    0.791330    23Ag     0.811855  
       5B1g    0.895549    24Ag     0.895594     3Au     0.937084  
      19B1u    0.937131    10B2g    0.942806    10B3g    0.942806  
      20B1u    0.947084    13B3u    0.993823    13B2u    0.993823  
      25Ag     0.994121     6B1g    1.009272    26Ag     1.009320  
      11B2g    1.189711    11B3g    1.189711    21B1u    1.226986  
      27Ag     1.510889    14B3u    2.947207    14B2u    2.947207  
      28Ag     3.026754    22B1u    3.031678    12B2g    3.043500  
      12B3g    3.043500    15B3u    3.066445    15B2u    3.066445  
      23B1u    3.110498    29Ag     3.196049    30Ag     3.376072  
      16B3u    3.388698    16B2u    3.388698    13B2g    3.392460  
      13B3g    3.392460    24B1u    3.393483     4Au     3.408154  
      25B1u    3.408198     7B1g    3.409154    31Ag     3.409197  
      17B3u    3.412536    17B2u    3.412536    14B3g    3.412538  
      14B2g    3.412538     5Au     3.429635    26B1u    3.429704  
      18B3u    3.436302    18B2u    3.436302    19B3u    3.446070  
      19B2u    3.446070    27B1u    3.459596    32Ag     3.556660  
       8B1g    3.596562    33Ag     3.596584     6Au     3.620121  
      28B1u    3.620147    15B2g    3.660766    15B3g    3.660766  
       9B1g    3.670453    34Ag     3.670475    29B1u    3.725472  
      20B3u    3.728527    20B2u    3.728527    16B2g    3.818611  
      16B3g    3.818611    35Ag     3.948698    30B1u    4.056403  
      36Ag     4.402069    21B3u   12.706109    21B2u   12.706109  
      17B2g   12.706867    17B3g   12.706867     7Au    12.706947  
      31B1u   12.706975    10B1g   12.707004    32B1u   12.707016  
      37Ag    12.707031    38Ag    12.707373    22B2u   12.708268  
      22B3u   12.708268    18B3g   12.708268    18B2g   12.708268  
      33B1u   12.709528    39Ag    12.709528     8Au    12.709671  
      11B1g   12.709671    19B3g   12.718196    19B2g   12.718196  
      12B1g   12.718770    40Ag    12.718832    20B2g   12.720686  
      20B3g   12.720686    41Ag    12.721302    42Ag    12.722639  
      13B1g   12.722840    23B2u   12.865287    23B3u   12.865287  
       9Au    12.866862    34B1u   12.866994    24B3u   12.867810  
      24B2u   12.867810    21B3g   12.867810    21B2g   12.867810  
      14B1g   12.867935    43Ag    12.868066    35B1u   12.871309  
      10Au    12.878327    36B1u   12.878521    25B2u   12.878880  
      25B3u   12.878880    22B3g   12.881380    22B2g   12.881380  
      26B2u   12.894932    26B3u   12.894932    44Ag    12.956253  
      37B1u   12.991998  

    Beta Occupied:                                                        

       1B1u -320.697462     1Ag  -320.697455     2Ag  -320.685866  
       2B1u  -37.866556     3Ag   -37.866456     4Ag   -37.858332  
       5Ag   -33.718371     3B1u  -33.718367     1B2g  -33.716514  
       1B3g  -33.716514     1B3u  -33.716511     1B2u  -33.716511  
       4B1u  -33.710389     2B3u  -33.706652     2B2u  -33.706652  
       5B1u   -4.086456     6Ag    -4.086420     7Ag    -4.077184  
       6B1u   -2.760585     8Ag    -2.759590     3B2u   -2.756171  
       3B3u   -2.756171     2B3g   -2.756158     2B2g   -2.756158  
       7B1u   -2.748401     4B2u   -2.744839     4B3u   -2.744839  
       9Ag    -0.362374     3B3g   -0.344864     3B2g   -0.344864  
       8B1u   -0.330046     5B2u   -0.328618     5B3u   -0.328618  
      10Ag    -0.326566     1B1g   -0.326562     9B1u   -0.324683  
       1Au    -0.324679    11Ag    -0.311036     2B1g   -0.311033  
       4B3g   -0.297741     4B2g   -0.297741    12Ag    -0.292790  
      13Ag    -0.243941  

    Beta Virtual:                                                         

      10B1u   -0.113613    14Ag    -0.019468     6B2u   -0.014884  
       6B3u   -0.014884    11B1u    0.042465     5B3g    0.048607  
       5B2g    0.048607    15Ag     0.094715    12B1u    0.095533  
       7B2u    0.108928     7B3u    0.108928    16Ag     0.125850  
       8B2u    0.157447     8B3u    0.157447     6B3g    0.175788  
       6B2g    0.175788    13B1u    0.177119    17Ag     0.189454  
       3B1g    0.189458     9B2u    0.229008     9B3u    0.229008  
      18Ag     0.235441    14B1u    0.245035     2Au     0.245038  
      19Ag     0.259700     7B3g    0.281980     7B2g    0.281980  
      15B1u    0.294275    20Ag     0.330641     4B1g    0.330642  
      16B1u    0.344631    10B2u    0.392748    10B3u    0.392748  
      21Ag     0.413583     8B3g    0.501426     8B2g    0.501426  
      22Ag     0.537373    17B1u    0.598198    18B1u    0.653982  
      11B3u    0.700618    11B2u    0.700618     9B3g    0.733176  
       9B2g    0.733176    12B2u    0.794678    12B3u    0.794678  
      23Ag     0.818984     5B1g    0.899406    24Ag     0.899450  
       3Au     0.945405    19B1u    0.945438    20B1u    0.945921  
      10B3g    0.948048    10B2g    0.948048    25Ag     0.999977  
      13B2u    1.002403    13B3u    1.002403     6B1g    1.011187  
      26Ag     1.011236    11B3g    1.195610    11B2g    1.195610  
      21B1u    1.231826    27Ag     1.515135    14B2u    2.953113  
      14B3u    2.953113    28Ag     3.033970    22B1u    3.035600  
      12B3g    3.053115    12B2g    3.053115    15B2u    3.069020  
      15B3u    3.069020    23B1u    3.117274    29Ag     3.199940  
      30Ag     3.380397    16B2u    3.390344    16B3u    3.390344  
      24B1u    3.397263    13B3g    3.398018    13B2g    3.398018  
       4Au     3.414970    25B1u    3.415017     7B1g    3.416582  
      31Ag     3.416626    17B2u    3.421250    17B3u    3.421250  
      14B3g    3.421254    14B2g    3.421254     5Au     3.428868  
      26B1u    3.428937    18B3u    3.434336    18B2u    3.434336  
      19B2u    3.450510    19B3u    3.450510    27B1u    3.464142  
      32Ag     3.558239     8B1g    3.601962    33Ag     3.601981  
       6Au     3.628841    28B1u    3.628858    15B3g    3.668016  
      15B2g    3.668016     9B1g    3.672238    34Ag     3.672260  
      29B1u    3.731008    20B2u    3.735476    20B3u    3.735476  
      16B3g    3.822180    16B2g    3.822180    35Ag     3.956244  
      30B1u    4.063369    36Ag     4.410669    21B3u   12.705016  
      21B2u   12.705016    17B2g   12.705773    17B3g   12.705773  
      31B1u   12.705873     7Au    12.705971    32B1u   12.705993  
      10B1g   12.706027    37Ag    12.706050    38Ag    12.706239  
      22B2u   12.707429    22B3u   12.707429    18B3g   12.707430  
      18B2g   12.707430    33B1u   12.708785    39Ag    12.708785  
      11B1g   12.708928     8Au    12.708928    19B3g   12.717592  
      19B2g   12.717592    12B1g   12.718237    40Ag    12.718296  
      20B2g   12.720352    20B3g   12.720352    41Ag    12.720673  
      42Ag    12.722754    13B1g   12.722955    23B2u   12.865374  
      23B3u   12.865374     9Au    12.867223    34B1u   12.867355  
      14B1g   12.868309    43Ag    12.868441    24B3u   12.868543  
      24B2u   12.868543    21B3g   12.868543    21B2g   12.868543  
      35B1u   12.871192    10Au    12.877980    36B1u   12.878174  
      25B2u   12.878679    25B3u   12.878679    22B3g   12.881642  
      22B2g   12.881642    26B2u   12.894395    26B3u   12.894395  
      44Ag    12.956665    37B1u   12.991672  

    Final Occupation by Irrep:
             Ag   B1g   B2g   B3g    Au   B1u   B2u   B3u 
    DOCC [    13,    2,    4,    4,    1,    9,    5,    5 ]
    SOCC [     0,    0,    0,    0,    0,    1,    0,    0 ]

  @DF-UKS Final Energy: -4922.35770627469174

   => Energetics <=

    Nuclear Repulsion Energy =            485.6163288595016070
    One-Electron Energy =               -7832.9623831126200457
    Two-Electron Energy =                2540.7994004159927499
    DFT Exchange-Correlation Energy =    -115.8109591075667169
    Empirical Dispersion Energy =          -0.0000933300000000
    VV10 Nonlocal Energy =                  0.0000000000000000
    Total Energy =                      -4922.3577062746917363

  UHF NO Occupations:
  HONO-2 :    4B2g 1.9999037
  HONO-1 :   13 Ag 1.9865222
  HONO-0 :   10B1u 1.0000000
  LUNO+0 :   14 Ag 0.0134778
  LUNO+1 :    5B2g 0.0000963
  LUNO+2 :    5B3g 0.0000963
  LUNO+3 :   11B1u 0.0000827


Computation Completed


Properties will be evaluated at   0.000000,   0.000000,   0.000000 [a0]

Properties computed using the SCF density matrix

  Nuclear Dipole Moment: [e a0]
     X:     0.0000      Y:     0.0000      Z:     0.0000

  Electronic Dipole Moment: [e a0]
     X:     0.0000      Y:     0.0000      Z:     0.0000

  Dipole Moment: [e a0]
     X:     0.0000      Y:     0.0000      Z:     0.0000     Total:     0.0000

  Dipole Moment: [D]
     X:     0.0000      Y:     0.0000      Z:     0.0000     Total:     0.0000


*** tstop() called on bp1-compute00115.data.bp.acrc.priv at Fri Oct 29 08:44:58 2021
Module time:
	user time   =     438.27 seconds =       7.30 minutes
	system time =      22.19 seconds =       0.37 minutes
	total time  =         20 seconds =       0.33 minutes
Total time:
	user time   =     438.27 seconds =       7.30 minutes
	system time =      22.19 seconds =       0.37 minutes
	total time  =         20 seconds =       0.33 minutes

*** tstart() called on bp1-compute00115.data.bp.acrc.priv
*** at Fri Oct 29 08:44:58 2021


         ------------------------------------------------------------
                                   SCF GRAD                          
                          Rob Parrish, Justin Turney,                
                       Andy Simmonett, and Alex Sokolov              
         ------------------------------------------------------------

  ==> Geometry <==

    Molecular point group: d2h
    Full point group: D_inf_h

    Geometry (in Angstrom), charge = 0, multiplicity = 2:

       Center              X                  Y                   Z               Mass       
    ------------   -----------------  -----------------  -----------------  -----------------
         CU           0.000000000000     0.000000000000     0.000000000000    62.929597720000
         CU           0.000000000000     0.000000000000     2.291099000000    62.929597720000
         CU           0.000000000000     0.000000000000    -2.291099000000    62.929597720000

  Nuclear repulsion =  485.616328859501607

  ==> Basis Set <==

  Basis Set: DEF2-TZVPPD
    Blend: DEF2-TZVPPD
    Number of shells: 57
    Number of basis function: 201
    Number of Cartesian functions: 249
    Spherical Harmonics?: true
    Max angular momentum: 4

  ==> DFJKGrad: Density-Fitted SCF Gradients <==

    Gradient:                    1
    J tasked:                  Yes
    K tasked:                  Yes
    wK tasked:                  No
    OpenMP threads:             24
    Integrals threads:          24
    Memory [MiB]:           102996
    Schwarz Cutoff:          0E+00
    Fitting Condition:       1E-10

   => Auxiliary Basis Set <=

  Basis Set: (DEF2-TZVPPD AUX)
    Blend: DEF2-TZVPP-JKFIT
    Number of shells: 174
    Number of basis function: 792
    Number of Cartesian functions: 1131
    Spherical Harmonics?: true
    Max angular momentum: 6

  ==> DFT Potential <==

   => Composite Functional: MN15-D3BJ <= 

   MN15 Hybrid Meta-GGA Exchange-Correlation Functional

    H. S. Yu, X. He, S. L. Li, and D. G. Truhlar, Chem. Sci. 7, 5032-5051, 2016


    Deriv               =              1
    GGA                 =           TRUE
    Meta                =           TRUE

    Exchange Hybrid     =           TRUE
    MP2 Hybrid          =          FALSE

   => Exchange Functionals <=

    1.0000   XC_HYB_MGGA_X_MN15

   => Exact (HF) Exchange <=

    0.4400               HF 

   => Correlation Functionals <=

    1.0000   XC_MGGA_C_MN15

   => Molecular Quadrature <=

    Radial Scheme          =       TREUTLER
    Pruning Scheme         =           FLAT
    Nuclear Scheme         =       TREUTLER

    BS radius alpha        =              1
    Pruning alpha          =              1
    Radial Points          =             75
    Spherical Points       =            302
    Total Points           =          67950
    Total Blocks           =            622
    Max Points             =            253
    Max Functions          =            170


  -Total Gradient:
     Atom            X                  Y                   Z
    ------   -----------------  -----------------  -----------------
       1        0.000000000000     0.000000000000     0.000000000000
       2        0.000000000000     0.000000000000    -0.005891100561
       3        0.000000000000    -0.000000000000     0.005891100561


*** tstop() called on bp1-compute00115.data.bp.acrc.priv at Fri Oct 29 08:45:06 2021
Module time:
	user time   =      94.20 seconds =       1.57 minutes
	system time =       4.89 seconds =       0.08 minutes
	total time  =          8 seconds =       0.13 minutes
Total time:
	user time   =     533.26 seconds =       8.89 minutes
	system time =      27.14 seconds =       0.45 minutes
	total time  =         28 seconds =       0.47 minutes

			-----------------------------------------
			 OPTKING 2.0: for geometry optimizations 
			  - R.A. King,  Bethel University        
			-----------------------------------------
	At level 1: Red. Int., RFO, no backsteps, dynamic trust

	Internal coordinates to be generated automatically.
	Detected frag 1 with atoms:  1 2 3
	---Fragment 1 Bond Connectivity---
	 1 : 2 3
	 2 : 1
	 3 : 1

	---Fragment 1 Geometry and Gradient---
	 CU          0.0000000000        0.0000000000        0.0000000000
	 CU          0.0000000000        0.0000000000        4.3295496363
	 CU          0.0000000000        0.0000000000       -4.3295496363
	             0.0000000000        0.0000000000        0.0000000000
	             0.0000000000        0.0000000000       -0.0058911006
	             0.0000000000       -0.0000000000        0.0058911006

	Previous optimization step data not found.  Starting new optimization.

	---Fragment 1 Intrafragment Coordinates---
	 - Coordinate -           - BOHR/RAD -       - ANG/DEG -
	 R(1,2)           =         4.329550	       2.291099
	 R(1,3)           =         4.329550	       2.291099
	 L(2,1,3)         =         3.141593	     180.000000
	 l(2,1,3)         =         3.141593	     180.000000

	Current energy   :     -4922.3577062747

	Generating empirical Hessian (Schlegel '84) for each fragment.
	Taking RFO optimization step.
	Going to follow RFO solution 1.
	Using RFO vector 1.
	Norm of target step-size    0.05540
	Projected energy change by RFO approximation:         0.0010699577

	Back-transformation to cartesian coordinates...
	Successfully converged to displaced geometry.

	--- Internal Coordinate Step in ANG or DEG, aJ/ANG or AJ/DEG ---
	 ---------------------------------------------------------------------------
	   Coordinate                Previous        Force       Change         New 
	   ----------                --------       ------       ------       ------
	    1 R(1,2)          =      2.291099     0.048535     0.020732     2.311831
	    2 R(1,3)          =      2.291099     0.048535     0.020732     2.311831
	    3 L(2,1,3)        =    180.000000    -0.000000     0.000000   180.000000
	    4 l(2,1,3)        =    180.000000    -0.000000     0.000000   180.000000
	 ---------------------------------------------------------------------------
	Successfully symmetrized geometry.

  ==> Convergence Check <==

  Measures of convergence in internal coordinates in au.
  Criteria marked as inactive (o), active & met (*), and active & unmet ( ).
  --------------------------------------------------------------------------------------------- ~
   Step     Total Energy     Delta E     MAX Force     RMS Force      MAX Disp      RMS Disp    ~
  --------------------------------------------------------------------------------------------- ~
    Convergence Criteria    1.00e-06 *    3.00e-04 *             o    1.20e-03 *             o  ~
  --------------------------------------------------------------------------------------------- ~
      1   -4922.35770627   -4.92e+03      5.89e-03      4.17e-03 o    3.92e-02      2.77e-02 o  ~
  ---------------------------------------------------------------------------------------------

	Writing optimization data to binary file.
	Structure for next step:
	Cartesian Geometry (in Angstrom)
	   CU     0.0000000000   0.0000000000   0.0000000000
	   CU     0.0000000000  -0.0000000000   2.3118305354
	   CU     0.0000000000  -0.0000000000  -2.3118305354
			--------------------------
			 OPTKING Finished Execution 
			--------------------------

    Structure for next step:
    Molecular point group: d2h
    Full point group: D_inf_h

    Geometry (in Angstrom), charge = 0, multiplicity = 2:

    CU           0.000000000000     0.000000000000     0.000000000000
    CU          -0.000000000000     0.000000000000     2.311830544529
    CU          -0.000000000000     0.000000000000    -2.311830544529

gradient() will perform analytic gradient computation.

*** tstart() called on bp1-compute00115.data.bp.acrc.priv
*** at Fri Oct 29 08:45:06 2021

   => Loading Basis Set <=

    Name: DEF2-TZVPPD
    Role: ORBITAL
    Keyword: BASIS
    atoms 1-3 entry CU         line  1290 file /work/zw18965/.conda/envs/p4env/share/psi4/basis/def2-tzvppd.gbs 


         ---------------------------------------------------------
                                   SCF
               by Justin Turney, Rob Parrish, Andy Simmonett
                          and Daniel G. A. Smith
                              UKS Reference
                       24 Threads, 137329 MiB Core
         ---------------------------------------------------------

  ==> Geometry <==

    Molecular point group: d2h
    Full point group: D_inf_h

    Geometry (in Angstrom), charge = 0, multiplicity = 2:

       Center              X                  Y                   Z               Mass       
    ------------   -----------------  -----------------  -----------------  -----------------
         CU           0.000000000000    -0.000000000000     0.000000000000    62.929597720000
         CU           0.000000000000     0.000000000000     2.311830544529    62.929597720000
         CU           0.000000000000     0.000000000000    -2.311830544529    62.929597720000

  Running in d2h symmetry.

  Rotational constants: A = ************  B =      0.02506  C =      0.02506 [cm^-1]
  Rotational constants: A = ************  B =    751.31188  C =    751.31188 [MHz]
  Nuclear repulsion =  481.261521553508601

  Charge       = 0
  Multiplicity = 2
  Electrons    = 87
  Nalpha       = 44
  Nbeta        = 43

  ==> Algorithm <==

  SCF Algorithm Type is DF.
  DIIS enabled.
  MOM disabled.
  Fractional occupation disabled.
  Guess Type is READ.
  Energy threshold   = 1.00e-08
  Density threshold  = 1.00e-08
  Integral threshold = 0.00e+00

  ==> Primary Basis <==

  Basis Set: DEF2-TZVPPD
    Blend: DEF2-TZVPPD
    Number of shells: 57
    Number of basis function: 201
    Number of Cartesian functions: 249
    Spherical Harmonics?: true
    Max angular momentum: 4

  ==> DFT Potential <==

   => Composite Functional: MN15-D3BJ <= 

   MN15 Hybrid Meta-GGA Exchange-Correlation Functional

    H. S. Yu, X. He, S. L. Li, and D. G. Truhlar, Chem. Sci. 7, 5032-5051, 2016


    Deriv               =              1
    GGA                 =           TRUE
    Meta                =           TRUE

    Exchange Hybrid     =           TRUE
    MP2 Hybrid          =          FALSE

   => Exchange Functionals <=

    1.0000   XC_HYB_MGGA_X_MN15

   => Exact (HF) Exchange <=

    0.4400               HF 

   => Correlation Functionals <=

    1.0000   XC_MGGA_C_MN15

   => Molecular Quadrature <=

    Radial Scheme          =       TREUTLER
    Pruning Scheme         =           FLAT
    Nuclear Scheme         =       TREUTLER

    BS radius alpha        =              1
    Pruning alpha          =              1
    Radial Points          =             75
    Spherical Points       =            302
    Total Points           =          67950
    Total Blocks           =            622
    Max Points             =            256
    Max Functions          =            170

   => MN15-D3(BJ): Empirical Dispersion <=

    Grimme's -D3 (BJ-damping) Dispersion Correction
    Grimme S.; Ehrlich S.; Goerigk L. (2011), J. Comput. Chem., 32: 1456
    Parametrisation from:    L. Goerigk, A. Hansen, C. Bauer, S. Ehrlich, A. Najibi, S. Grimme, Phys. Chem. Chem. Phys. 19, 32184-32215, 2017

        s6 =       1.000000
        s8 =       2.097100
        a1 =       0.786200
        a2 =       7.592300

   => Loading Basis Set <=

    Name: (DEF2-TZVPPD AUX)
    Role: JKFIT
    Keyword: DF_BASIS_SCF
    atoms 1-3 entry CU         line  2361 file /work/zw18965/.conda/envs/p4env/share/psi4/basis/def2-tzvpp-jkfit.gbs 

   => Loading Basis Set <=

    Name: DEF2-TZVPPD
    Role: ORBITAL
    Keyword: BASIS
    atoms 1-3 entry CU         line  1290 file /work/zw18965/.conda/envs/p4env/share/psi4/basis/def2-tzvppd.gbs 

  Reading orbitals from file 180, no projection.

  ==> Pre-Iterations <==

   -------------------------------------------------------
    Irrep   Nso     Nmo     Nalpha   Nbeta   Ndocc  Nsocc
   -------------------------------------------------------
     Ag        44      44       0       0       0       0
     B1g       14      14       0       0       0       0
     B2g       22      22       0       0       0       0
     B3g       22      22       0       0       0       0
     Au        10      10       0       0       0       0
     B1u       37      37       0       0       0       0
     B2u       26      26       0       0       0       0
     B3u       26      26       0       0       0       0
   -------------------------------------------------------
    Total     201     201      44      43      43       1
   -------------------------------------------------------

  ==> Integral Setup <==

  DFHelper Memory: AOs need 0.225 GiB; user supplied 99.977 GiB. Using in-core AOs.

  ==> MemDFJK: Density-Fitted J/K Matrices <==

    J tasked:                   Yes
    K tasked:                   Yes
    wK tasked:                   No
    OpenMP threads:              24
    Memory [MiB]:            102376
    Algorithm:                 Core
    Schwarz Cutoff:           1E-12
    Mask sparsity (%):      15.5541
    Fitting Condition:        1E-10

   => Auxiliary Basis Set <=

  Basis Set: (DEF2-TZVPPD AUX)
    Blend: DEF2-TZVPP-JKFIT
    Number of shells: 174
    Number of basis function: 792
    Number of Cartesian functions: 1131
    Spherical Harmonics?: true
    Max angular momentum: 6

  Cached 100.0% of DFT collocation blocks in 0.606 [GiB].

  Minimum eigenvalue in the overlap matrix is 3.4216520942E-04.
  Using Symmetric Orthogonalization.

  SCF Guess: Orbitals guess was supplied from a previous computation.

  ==> Iterations <==

                           Total Energy        Delta E     RMS |[F,P]|

   @DF-UKS iter   0: -4922.38213228053883   -4.92238e+03   1.08515e-03 
   @DF-UKS iter   1: -4922.35805344803612    2.40788e-02   1.06463e-04 DIIS
   @DF-UKS iter   2: -4922.35798915936721    6.42887e-05   2.97987e-04 DIIS
   @DF-UKS iter   3: -4922.35806474877336   -7.55894e-05   1.57454e-05 DIIS
   @DF-UKS iter   4: -4922.35806491851417   -1.69741e-07   9.24669e-06 DIIS
   @DF-UKS iter   5: -4922.35806501080788   -9.22937e-08   1.74439e-06 DIIS
   @DF-UKS iter   6: -4922.35806502249579   -1.16879e-08   6.27059e-07 DIIS
   @DF-UKS iter   7: -4922.35806502534888   -2.85308e-09   1.64768e-07 DIIS
   @DF-UKS iter   8: -4922.35806502587639   -5.27507e-10   6.09011e-08 DIIS
   @DF-UKS iter   9: -4922.35806502592368   -4.72937e-11   2.75209e-08 DIIS
   @DF-UKS iter  10: -4922.35806502593005   -6.36646e-12   5.34514e-09 DIIS
  Energy and wave function converged.


  ==> Post-Iterations <==

   @Spin Contamination Metric:   2.885114277E-02
   @S^2 Expected:                7.500000000E-01
   @S^2 Observed:                7.788511428E-01
   @S   Expected:                5.000000000E-01
   @S   Observed:                5.000000000E-01

    Orbital Energies [Eh]
    ---------------------

    Alpha Occupied:                                                       

       1B1u -320.697682     1Ag  -320.697675     2Ag  -320.685303  
       2B1u  -37.865968     3Ag   -37.865874     4Ag   -37.857858  
       5Ag   -33.717731     3B1u  -33.717727     1B3g  -33.715333  
       1B2g  -33.715333     1B2u  -33.715330     1B3u  -33.715330  
       4B1u  -33.709969     2B2u  -33.705963     2B3u  -33.705963  
       5B1u   -4.087443     6Ag    -4.087401     7Ag    -4.075959  
       6B1u   -2.759272     8Ag    -2.758404     3B3u   -2.755837  
       3B2u   -2.755837     2B2g   -2.755835     2B3g   -2.755835  
       7B1u   -2.747462     4B2u   -2.744091     4B3u   -2.744091  
       9Ag    -0.363105     3B3g   -0.344278     3B2g   -0.344278  
       8B1u   -0.329875     5B2u   -0.329014     5B3u   -0.329014  
      10Ag    -0.327376     1B1g   -0.327374     9B1u   -0.325832  
       1Au    -0.325830    11Ag    -0.310393     2B1g   -0.310390  
       4B3g   -0.297330     4B2g   -0.297330    12Ag    -0.294487  
      13Ag    -0.263575    10B1u   -0.218444  

    Alpha Virtual:                                                        

      14Ag    -0.053115     6B3u   -0.025505     6B2u   -0.025505  
      11B1u    0.011950     5B2g    0.017920     5B3g    0.017920  
      15Ag     0.091078    12B1u    0.092760     7B3u    0.094283  
       7B2u    0.094283    16Ag     0.119194     8B3u    0.156331  
       8B2u    0.156331    13B1u    0.160859     6B3g    0.171934  
       6B2g    0.171934    17Ag     0.182248     3B1g    0.182252  
      14B1u    0.220865     2Au     0.220868    18Ag     0.223093  
       9B3u    0.230042     9B2u    0.230042    19Ag     0.243144  
       7B3g    0.258962     7B2g    0.258962    15B1u    0.279130  
      20Ag     0.319896     4B1g    0.319900    16B1u    0.328805  
      10B3u    0.374437    10B2u    0.374437    21Ag     0.404984  
       8B3g    0.493266     8B2g    0.493266    22Ag     0.533967  
      17B1u    0.589885    18B1u    0.641191    11B3u    0.695303  
      11B2u    0.695303     9B3g    0.720947     9B2g    0.720947  
      12B3u    0.789869    12B2u    0.789869    23Ag     0.809602  
       5B1g    0.897530    24Ag     0.897580     3Au     0.937184  
      19B1u    0.937235    10B2g    0.939314    10B3g    0.939314  
      20B1u    0.946179    25Ag     0.989027    13B3u    0.992424  
      13B2u    0.992424     6B1g    1.007809    26Ag     1.007860  
      11B2g    1.184371    11B3g    1.184371    21B1u    1.218011  
      27Ag     1.501488    14B3u    2.947665    14B2u    2.947665  
      28Ag     3.023794    22B1u    3.038829    12B2g    3.040807  
      12B3g    3.040807    15B3u    3.066848    15B2u    3.066848  
      23B1u    3.097203    29Ag     3.193883    30Ag     3.372530  
      16B3u    3.391192    16B2u    3.391192    24B1u    3.391968  
      13B2g    3.394082    13B3g    3.394082     4Au     3.408781  
      25B1u    3.408830     7B1g    3.409669    31Ag     3.409716  
      17B2u    3.412659    17B3u    3.412659    14B3g    3.412661  
      14B2g    3.412661     5Au     3.430481    26B1u    3.430560  
      18B3u    3.436691    18B2u    3.436691    19B3u    3.442353  
      19B2u    3.442353    27B1u    3.460624    32Ag     3.551150  
       8B1g    3.596950    33Ag     3.596988     6Au     3.619719  
      28B1u    3.619759    15B2g    3.656171    15B3g    3.656171  
       9B1g    3.669980    34Ag     3.670018    29B1u    3.710190  
      20B3u    3.724536    20B2u    3.724536    16B2g    3.815388  
      16B3g    3.815388    35Ag     3.938462    30B1u    4.043143  
      36Ag     4.387836    21B3u   12.706460    21B2u   12.706460  
      17B2g   12.707158    17B3g   12.707158     7Au    12.707264  
      10B1g   12.707313    31B1u   12.707314    37Ag    12.707363  
      32B1u   12.707381    38Ag    12.707724    22B3u   12.708530  
      22B2u   12.708530    18B2g   12.708530    18B3g   12.708530  
      33B1u   12.709706    39Ag    12.709706     8Au    12.709840  
      11B1g   12.709840    19B3g   12.718888    19B2g   12.718888  
      12B1g   12.719464    40Ag    12.719561    20B2g   12.721297  
      20B3g   12.721297    41Ag    12.721938    42Ag    12.723107  
      13B1g   12.723296    23B2u   12.866228    23B3u   12.866228  
       9Au    12.867245    34B1u   12.867378    21B2g   12.868034  
      21B3g   12.868034    24B3u   12.868035    24B2u   12.868035  
      14B1g   12.868207    43Ag    12.868339    35B1u   12.873844  
      10Au    12.878990    36B1u   12.879184    25B2u   12.879446  
      25B3u   12.879446    22B3g   12.880474    22B2g   12.880474  
      26B2u   12.893668    26B3u   12.893668    44Ag    12.949949  
      37B1u   12.983052  

    Beta Occupied:                                                        

       1B1u -320.697212     1Ag  -320.697206     2Ag  -320.685299  
       2B1u  -37.866204     3Ag   -37.866110     4Ag   -37.857567  
       5Ag   -33.718018     3B1u  -33.718014     1B2g  -33.716199  
       1B3g  -33.716199     1B3u  -33.716196     1B2u  -33.716196  
       4B1u  -33.709630     2B2u  -33.705948     2B3u  -33.705948  
       5B1u   -4.086122     6Ag    -4.086082     7Ag    -4.076448  
       6B1u   -2.759941     8Ag    -2.759128     3B2u   -2.755919  
       3B3u   -2.755919     2B3g   -2.755908     2B2g   -2.755908  
       7B1u   -2.747637     4B2u   -2.744231     4B3u   -2.744231  
       9Ag    -0.360284     3B3g   -0.343412     3B2g   -0.343412  
       8B1u   -0.329535     5B2u   -0.328150     5B3u   -0.328150  
      10Ag    -0.326166     1B1g   -0.326163     9B1u   -0.324469  
       1Au    -0.324466    11Ag    -0.310668     2B1g   -0.310666  
       4B3g   -0.298023     4B2g   -0.298023    12Ag    -0.293173  
      13Ag    -0.243178  

    Beta Virtual:                                                         

      10B1u   -0.113808    14Ag    -0.020371     6B2u   -0.014605  
       6B3u   -0.014605    11B1u    0.041836     5B3g    0.048176  
       5B2g    0.048176    15Ag     0.094651    12B1u    0.095197  
       7B3u    0.108310     7B2u    0.108310    16Ag     0.126114  
       8B2u    0.157411     8B3u    0.157411     6B3g    0.175733  
       6B2g    0.175733    13B1u    0.177204    17Ag     0.189408  
       3B1g    0.189412     9B3u    0.228225     9B2u    0.228225  
      18Ag     0.234283    14B1u    0.244598     2Au     0.244600  
      19Ag     0.257368     7B3g    0.280571     7B2g    0.280571  
      15B1u    0.294732    20Ag     0.329499     4B1g    0.329500  
      16B1u    0.343049    10B2u    0.390772    10B3u    0.390772  
      21Ag     0.414303     8B3g    0.499149     8B2g    0.499149  
      22Ag     0.534762    17B1u    0.594343    18B1u    0.652523  
      11B2u    0.702946    11B3u    0.702946     9B3g    0.733856  
       9B2g    0.733856    12B3u    0.793037    12B2u    0.793037  
      23Ag     0.817038     5B1g    0.901277    24Ag     0.901323  
      10B3g    0.944506    10B2g    0.944506    19B1u    0.944847  
       3Au     0.945329    20B1u    0.945362    25Ag     0.994907  
      13B2u    1.001051    13B3u    1.001051     6B1g    1.009602  
      26Ag     1.009654    11B2g    1.190162    11B3g    1.190162  
      21B1u    1.222853    27Ag     1.505789    14B3u    2.953467  
      14B2u    2.953467    28Ag     3.030829    22B1u    3.042803  
      12B2g    3.050323    12B3g    3.050323    15B3u    3.069390  
      15B2u    3.069390    23B1u    3.104077    29Ag     3.197946  
      30Ag     3.377010    16B2u    3.392731    16B3u    3.392731  
      24B1u    3.396035    13B3g    3.399716    13B2g    3.399716  
       4Au     3.415798    25B1u    3.415852     7B1g    3.417122  
      31Ag     3.417174    17B2u    3.421365    17B3u    3.421365  
      14B3g    3.421368    14B2g    3.421368     5Au     3.429481  
      26B1u    3.429561    18B3u    3.434699    18B2u    3.434699  
      19B2u    3.446853    19B3u    3.446853    27B1u    3.464682  
      32Ag     3.552699     8B1g    3.602277    33Ag     3.602312  
       6Au     3.628402    28B1u    3.628433    15B3g    3.663360  
      15B2g    3.663360     9B1g    3.671710    34Ag     3.671749  
      29B1u    3.715769    20B2u    3.731524    20B3u    3.731524  
      16B2g    3.818899    16B3g    3.818899    35Ag     3.945938  
      30B1u    4.050065    36Ag     4.396471    21B2u   12.705375  
      21B3u   12.705375    17B3g   12.706071    17B2g   12.706071  
      31B1u   12.706245     7Au    12.706295    32B1u   12.706339  
      10B1g   12.706343    37Ag    12.706388    38Ag    12.706597  
      22B3u   12.707697    22B2u   12.707697    18B2g   12.707697  
      18B3g   12.707697    33B1u   12.708967    39Ag    12.708967  
      11B1g   12.709102     8Au    12.709102    19B3g   12.718312  
      19B2g   12.718312    12B1g   12.718957    40Ag    12.719051  
      20B2g   12.720985    20B3g   12.720985    41Ag    12.721338  
      42Ag    12.723233    13B1g   12.723423    23B2u   12.866342  
      23B3u   12.866342     9Au    12.867616    34B1u   12.867749  
      14B1g   12.868587    43Ag    12.868719    21B2g   12.868771  
      21B3g   12.868771    24B3u   12.868771    24B2u   12.868771  
      35B1u   12.873755    10Au    12.878650    36B1u   12.878845  
      25B2u   12.879249    25B3u   12.879249    22B3g   12.880738  
      22B2g   12.880738    26B2u   12.893128    26B3u   12.893128  
      44Ag    12.950358    37B1u   12.982714  

    Final Occupation by Irrep:
             Ag   B1g   B2g   B3g    Au   B1u   B2u   B3u 
    DOCC [    13,    2,    4,    4,    1,    9,    5,    5 ]
    SOCC [     0,    0,    0,    0,    0,    1,    0,    0 ]

  @DF-UKS Final Energy: -4922.35806502593005

   => Energetics <=

    Nuclear Repulsion Energy =            481.2615215535086008
    One-Electron Energy =               -7824.2967429787713627
    Two-Electron Energy =                2536.4856348928246916
    DFT Exchange-Correlation Energy =    -115.8083851234912487
    Empirical Dispersion Energy =          -0.0000933700000000
    VV10 Nonlocal Energy =                  0.0000000000000000
    Total Energy =                      -4922.3580650259291360

  UHF NO Occupations:
  HONO-2 :    4B2g 1.9999077
  HONO-1 :   13 Ag 1.9860705
  HONO-0 :   10B1u 1.0000000
  LUNO+0 :   14 Ag 0.0139295
  LUNO+1 :    5B2g 0.0000923
  LUNO+2 :    5B3g 0.0000923
  LUNO+3 :   11B1u 0.0000824


Computation Completed


Properties will be evaluated at   0.000000,   0.000000,   0.000000 [a0]

Properties computed using the SCF density matrix

  Nuclear Dipole Moment: [e a0]
     X:     0.0000      Y:     0.0000      Z:     0.0000

  Electronic Dipole Moment: [e a0]
     X:     0.0000      Y:     0.0000      Z:     0.0000

  Dipole Moment: [e a0]
     X:     0.0000      Y:     0.0000      Z:     0.0000     Total:     0.0000

  Dipole Moment: [D]
     X:     0.0000      Y:     0.0000      Z:     0.0000     Total:     0.0000


*** tstop() called on bp1-compute00115.data.bp.acrc.priv at Fri Oct 29 08:45:18 2021
Module time:
	user time   =     258.45 seconds =       4.31 minutes
	system time =      12.22 seconds =       0.20 minutes
	total time  =         12 seconds =       0.20 minutes
Total time:
	user time   =     791.93 seconds =      13.20 minutes
	system time =      39.37 seconds =       0.66 minutes
	total time  =         40 seconds =       0.67 minutes

*** tstart() called on bp1-compute00115.data.bp.acrc.priv
*** at Fri Oct 29 08:45:18 2021


         ------------------------------------------------------------
                                   SCF GRAD                          
                          Rob Parrish, Justin Turney,                
                       Andy Simmonett, and Alex Sokolov              
         ------------------------------------------------------------

  ==> Geometry <==

    Molecular point group: d2h
    Full point group: D_inf_h

    Geometry (in Angstrom), charge = 0, multiplicity = 2:

       Center              X                  Y                   Z               Mass       
    ------------   -----------------  -----------------  -----------------  -----------------
         CU          -0.000000000000     0.000000000000     0.000000000000    62.929597720000
         CU           0.000000000000     0.000000000000     2.311830544529    62.929597720000
         CU           0.000000000000     0.000000000000    -2.311830544529    62.929597720000

  Nuclear repulsion =  481.261521553508601

  ==> Basis Set <==

  Basis Set: DEF2-TZVPPD
    Blend: DEF2-TZVPPD
    Number of shells: 57
    Number of basis function: 201
    Number of Cartesian functions: 249
    Spherical Harmonics?: true
    Max angular momentum: 4

  ==> DFJKGrad: Density-Fitted SCF Gradients <==

    Gradient:                    1
    J tasked:                  Yes
    K tasked:                  Yes
    wK tasked:                  No
    OpenMP threads:             24
    Integrals threads:          24
    Memory [MiB]:           102996
    Schwarz Cutoff:          0E+00
    Fitting Condition:       1E-10

   => Auxiliary Basis Set <=

  Basis Set: (DEF2-TZVPPD AUX)
    Blend: DEF2-TZVPP-JKFIT
    Number of shells: 174
    Number of basis function: 792
    Number of Cartesian functions: 1131
    Spherical Harmonics?: true
    Max angular momentum: 6

  ==> DFT Potential <==

   => Composite Functional: MN15-D3BJ <= 

   MN15 Hybrid Meta-GGA Exchange-Correlation Functional

    H. S. Yu, X. He, S. L. Li, and D. G. Truhlar, Chem. Sci. 7, 5032-5051, 2016


    Deriv               =              1
    GGA                 =           TRUE
    Meta                =           TRUE

    Exchange Hybrid     =           TRUE
    MP2 Hybrid          =          FALSE

   => Exchange Functionals <=

    1.0000   XC_HYB_MGGA_X_MN15

   => Exact (HF) Exchange <=

    0.4400               HF 

   => Correlation Functionals <=

    1.0000   XC_MGGA_C_MN15

   => Molecular Quadrature <=

    Radial Scheme          =       TREUTLER
    Pruning Scheme         =           FLAT
    Nuclear Scheme         =       TREUTLER

    BS radius alpha        =              1
    Pruning alpha          =              1
    Radial Points          =             75
    Spherical Points       =            302
    Total Points           =          67950
    Total Blocks           =            622
    Max Points             =            256
    Max Functions          =            170


  -Total Gradient:
     Atom            X                  Y                   Z
    ------   -----------------  -----------------  -----------------
       1        0.000000000000     0.000000000000     0.000000000000
       2        0.000000000000    -0.000000000000    -0.003302208052
       3        0.000000000000     0.000000000000     0.003302208052


*** tstop() called on bp1-compute00115.data.bp.acrc.priv at Fri Oct 29 08:45:25 2021
Module time:
	user time   =      94.10 seconds =       1.57 minutes
	system time =       5.01 seconds =       0.08 minutes
	total time  =          7 seconds =       0.12 minutes
Total time:
	user time   =     886.96 seconds =      14.78 minutes
	system time =      44.44 seconds =       0.74 minutes
	total time  =         47 seconds =       0.78 minutes

			-----------------------------------------
			 OPTKING 2.0: for geometry optimizations 
			  - R.A. King,  Bethel University        
			-----------------------------------------
	At level 1: Red. Int., RFO, no backsteps, dynamic trust

	Previous internal coordinate definitions found.
	---Fragment 1 Geometry and Gradient---
	 CU         -0.0000000000        0.0000000000        0.0000000000
	 CU          0.0000000000        0.0000000000        4.3687265776
	 CU          0.0000000000        0.0000000000       -4.3687265776
	             0.0000000000        0.0000000000        0.0000000000
	             0.0000000000       -0.0000000000       -0.0033022081
	             0.0000000000        0.0000000000        0.0033022081

	---Fragment 1 Intrafragment Coordinates---
	 - Coordinate -           - BOHR/RAD -       - ANG/DEG -
	 R(1,2)           =         4.368727	       2.311831
	 R(1,3)           =         4.368727	       2.311831
	 L(2,1,3)         =         3.141593	     180.000000
	 l(2,1,3)         =         3.141593	     180.000000

	Current energy   :     -4922.3580650259

	Energy change for the previous step:
		Projected    :         0.0010699577
		Actual       :        -0.0003587512

	Performing BFGS update.
	Previous computed or guess Hessian on step 1.
	Steps to be used in Hessian update: 1
	Taking RFO optimization step.
	Going to follow RFO solution 1.
	Using RFO vector 1.
	Norm of target step-size    0.07032
	Projected energy change by RFO approximation:         0.0014129341

	Back-transformation to cartesian coordinates...
	Successfully converged to displaced geometry.

	--- Internal Coordinate Step in ANG or DEG, aJ/ANG or AJ/DEG ---
	 ---------------------------------------------------------------------------
	   Coordinate                Previous        Force       Change         New 
	   ----------                --------       ------       ------       ------
	    1 R(1,2)          =      2.311831     0.027206     0.026313     2.338143
	    2 R(1,3)          =      2.311831     0.027206     0.026313     2.338143
	    3 L(2,1,3)        =    180.000000     0.000000     0.000000   180.000000
	    4 l(2,1,3)        =    180.000000    -0.000000     0.000000   180.000000
	 ---------------------------------------------------------------------------
	Successfully symmetrized geometry.

  ==> Convergence Check <==

  Measures of convergence in internal coordinates in au.
  Criteria marked as inactive (o), active & met (*), and active & unmet ( ).
  ---------------------------------------------------------------------------------------------
   Step     Total Energy     Delta E     MAX Force     RMS Force      MAX Disp      RMS Disp   
  ---------------------------------------------------------------------------------------------
    Convergence Criteria    1.00e-06 *    3.00e-04 *             o    1.20e-03 *             o
  ---------------------------------------------------------------------------------------------
      2   -4922.35806503   -3.59e-04      3.30e-03      2.34e-03 o    4.97e-02      3.52e-02 o  ~
  ---------------------------------------------------------------------------------------------

	Writing optimization data to binary file.
	Structure for next step:
	Cartesian Geometry (in Angstrom)
	   CU     0.0000000000   0.0000000000   0.0000000000
	   CU    -0.0000000000  -0.0000000000   2.3381434623
	   CU    -0.0000000000  -0.0000000000  -2.3381434623
			--------------------------
			 OPTKING Finished Execution 
			--------------------------

    Structure for next step:
    Molecular point group: d2h
    Full point group: D_inf_h

    Geometry (in Angstrom), charge = 0, multiplicity = 2:

    CU           0.000000000000     0.000000000000     0.000000000000
    CU           0.000000000000     0.000000000000     2.338143471442
    CU           0.000000000000     0.000000000000    -2.338143471442

gradient() will perform analytic gradient computation.

*** tstart() called on bp1-compute00115.data.bp.acrc.priv
*** at Fri Oct 29 08:45:25 2021

   => Loading Basis Set <=

    Name: DEF2-TZVPPD
    Role: ORBITAL
    Keyword: BASIS
    atoms 1-3 entry CU         line  1290 file /work/zw18965/.conda/envs/p4env/share/psi4/basis/def2-tzvppd.gbs 


         ---------------------------------------------------------
                                   SCF
               by Justin Turney, Rob Parrish, Andy Simmonett
                          and Daniel G. A. Smith
                              UKS Reference
                       24 Threads, 137329 MiB Core
         ---------------------------------------------------------

  ==> Geometry <==

    Molecular point group: d2h
    Full point group: D_inf_h

    Geometry (in Angstrom), charge = 0, multiplicity = 2:

       Center              X                  Y                   Z               Mass       
    ------------   -----------------  -----------------  -----------------  -----------------
         CU           0.000000000000     0.000000000000     0.000000000000    62.929597720000
         CU           0.000000000000     0.000000000000     2.338143471442    62.929597720000
         CU           0.000000000000     0.000000000000    -2.338143471442    62.929597720000

  Running in d2h symmetry.

  Rotational constants: A = ************  B =      0.02450  C =      0.02450 [cm^-1]
  Rotational constants: A = ************  B =    734.49685  C =    734.49685 [MHz]
  Nuclear repulsion =  475.845515479610128

  Charge       = 0
  Multiplicity = 2
  Electrons    = 87
  Nalpha       = 44
  Nbeta        = 43

  ==> Algorithm <==

  SCF Algorithm Type is DF.
  DIIS enabled.
  MOM disabled.
  Fractional occupation disabled.
  Guess Type is READ.
  Energy threshold   = 1.00e-08
  Density threshold  = 1.00e-08
  Integral threshold = 0.00e+00

  ==> Primary Basis <==

  Basis Set: DEF2-TZVPPD
    Blend: DEF2-TZVPPD
    Number of shells: 57
    Number of basis function: 201
    Number of Cartesian functions: 249
    Spherical Harmonics?: true
    Max angular momentum: 4

  ==> DFT Potential <==

   => Composite Functional: MN15-D3BJ <= 

   MN15 Hybrid Meta-GGA Exchange-Correlation Functional

    H. S. Yu, X. He, S. L. Li, and D. G. Truhlar, Chem. Sci. 7, 5032-5051, 2016


    Deriv               =              1
    GGA                 =           TRUE
    Meta                =           TRUE

    Exchange Hybrid     =           TRUE
    MP2 Hybrid          =          FALSE

   => Exchange Functionals <=

    1.0000   XC_HYB_MGGA_X_MN15

   => Exact (HF) Exchange <=

    0.4400               HF 

   => Correlation Functionals <=

    1.0000   XC_MGGA_C_MN15

   => Molecular Quadrature <=

    Radial Scheme          =       TREUTLER
    Pruning Scheme         =           FLAT
    Nuclear Scheme         =       TREUTLER

    BS radius alpha        =              1
    Pruning alpha          =              1
    Radial Points          =             75
    Spherical Points       =            302
    Total Points           =          67950
    Total Blocks           =            621
    Max Points             =            253
    Max Functions          =            170

   => MN15-D3(BJ): Empirical Dispersion <=

    Grimme's -D3 (BJ-damping) Dispersion Correction
    Grimme S.; Ehrlich S.; Goerigk L. (2011), J. Comput. Chem., 32: 1456
    Parametrisation from:    L. Goerigk, A. Hansen, C. Bauer, S. Ehrlich, A. Najibi, S. Grimme, Phys. Chem. Chem. Phys. 19, 32184-32215, 2017

        s6 =       1.000000
        s8 =       2.097100
        a1 =       0.786200
        a2 =       7.592300

   => Loading Basis Set <=

    Name: (DEF2-TZVPPD AUX)
    Role: JKFIT
    Keyword: DF_BASIS_SCF
    atoms 1-3 entry CU         line  2361 file /work/zw18965/.conda/envs/p4env/share/psi4/basis/def2-tzvpp-jkfit.gbs 

   => Loading Basis Set <=

    Name: DEF2-TZVPPD
    Role: ORBITAL
    Keyword: BASIS
    atoms 1-3 entry CU         line  1290 file /work/zw18965/.conda/envs/p4env/share/psi4/basis/def2-tzvppd.gbs 

  Reading orbitals from file 180, no projection.

  ==> Pre-Iterations <==

   -------------------------------------------------------
    Irrep   Nso     Nmo     Nalpha   Nbeta   Ndocc  Nsocc
   -------------------------------------------------------
     Ag        44      44       0       0       0       0
     B1g       14      14       0       0       0       0
     B2g       22      22       0       0       0       0
     B3g       22      22       0       0       0       0
     Au        10      10       0       0       0       0
     B1u       37      37       0       0       0       0
     B2u       26      26       0       0       0       0
     B3u       26      26       0       0       0       0
   -------------------------------------------------------
    Total     201     201      44      43      43       1
   -------------------------------------------------------

  ==> Integral Setup <==

  DFHelper Memory: AOs need 0.224 GiB; user supplied 99.978 GiB. Using in-core AOs.

  ==> MemDFJK: Density-Fitted J/K Matrices <==

    J tasked:                   Yes
    K tasked:                   Yes
    wK tasked:                   No
    OpenMP threads:              24
    Memory [MiB]:            102377
    Algorithm:                 Core
    Schwarz Cutoff:           1E-12
    Mask sparsity (%):      15.8659
    Fitting Condition:        1E-10

   => Auxiliary Basis Set <=

  Basis Set: (DEF2-TZVPPD AUX)
    Blend: DEF2-TZVPP-JKFIT
    Number of shells: 174
    Number of basis function: 792
    Number of Cartesian functions: 1131
    Spherical Harmonics?: true
    Max angular momentum: 6

  Cached 100.0% of DFT collocation blocks in 0.605 [GiB].

  Minimum eigenvalue in the overlap matrix is 3.5565907767E-04.
  Using Symmetric Orthogonalization.

  SCF Guess: Orbitals guess was supplied from a previous computation.

  ==> Iterations <==

                           Total Energy        Delta E     RMS |[F,P]|

   @DF-UKS iter   0: -4922.38714648736459   -4.92239e+03   1.31708e-03 
   @DF-UKS iter   1: -4922.35822851737885    2.89180e-02   1.20383e-04 DIIS
   @DF-UKS iter   2: -4922.35814758574452    8.09316e-05   3.35189e-04 DIIS
   @DF-UKS iter   3: -4922.35824282811154   -9.52424e-05   1.67396e-05 DIIS
   @DF-UKS iter   4: -4922.35824301161938   -1.83508e-07   1.04630e-05 DIIS
   @DF-UKS iter   5: -4922.35824313144167   -1.19822e-07   1.51079e-06 DIIS
   @DF-UKS iter   6: -4922.35824314534057   -1.38989e-08   6.75994e-07 DIIS
   @DF-UKS iter   7: -4922.35824314879210   -3.45153e-09   2.19663e-07 DIIS
   @DF-UKS iter   8: -4922.35824314951969   -7.27596e-10   7.85530e-08 DIIS
   @DF-UKS iter   9: -4922.35824314959063   -7.09406e-11   3.17763e-08 DIIS
   @DF-UKS iter  10: -4922.35824314960155   -1.09139e-11   5.94526e-09 DIIS
  Energy and wave function converged.


  ==> Post-Iterations <==

   @Spin Contamination Metric:   3.003321317E-02
   @S^2 Expected:                7.500000000E-01
   @S^2 Observed:                7.800332132E-01
   @S   Expected:                5.000000000E-01
   @S   Observed:                5.000000000E-01

    Orbital Energies [Eh]
    ---------------------

    Alpha Occupied:                                                       

       1B1u -320.697385     1Ag  -320.697379     2Ag  -320.684629  
       2B1u  -37.865547     3Ag   -37.865460     4Ag   -37.856938  
       5Ag   -33.717302     3B1u  -33.717299     1B3g  -33.714964  
       1B2g  -33.714964     1B2u  -33.714961     1B3u  -33.714961  
       4B1u  -33.709069     2B2u  -33.705131     2B3u  -33.705131  
       5B1u   -4.087049     6Ag    -4.087005     7Ag    -4.075091  
       6B1u   -2.758544     8Ag    -2.757868     3B2u   -2.755545  
       3B3u   -2.755545     2B3g   -2.755543     2B2g   -2.755543  
       7B1u   -2.746549     4B2u   -2.743396     4B3u   -2.743396  
       9Ag    -0.360491     3B2g   -0.342547     3B3g   -0.342547  
       8B1u   -0.329258     5B3u   -0.328463     5B2u   -0.328463  
      10Ag    -0.326936     1B1g   -0.326934     9B1u   -0.325581  
       1Au    -0.325579    11Ag    -0.309945     2B1g   -0.309942  
       4B3g   -0.297693     4B2g   -0.297693    12Ag    -0.294954  
      13Ag    -0.262610    10B1u   -0.218399  

    Alpha Virtual:                                                        

      14Ag    -0.054038     6B2u   -0.025088     6B3u   -0.025088  
      11B1u    0.011073     5B2g    0.017382     5B3g    0.017382  
      15Ag     0.090718    12B1u    0.092696     7B3u    0.093465  
       7B2u    0.093465    16Ag     0.119556     8B3u    0.156342  
       8B2u    0.156342    13B1u    0.160731     6B2g    0.171828  
       6B3g    0.171828    17Ag     0.182233     3B1g    0.182237  
      14B1u    0.220311     2Au     0.220314    18Ag     0.221510  
       9B2u    0.229137     9B3u    0.229137    19Ag     0.240660  
       7B3g    0.257397     7B2g    0.257397    15B1u    0.279471  
      20Ag     0.318520     4B1g    0.318523    16B1u    0.326848  
      10B3u    0.371914    10B2u    0.371914    21Ag     0.405054  
       8B3g    0.490211     8B2g    0.490211    22Ag     0.531108  
      17B1u    0.584770    18B1u    0.639676    11B3u    0.698110  
      11B2u    0.698110     9B3g    0.722075     9B2g    0.722075  
      12B3u    0.788115    12B2u    0.788115    23Ag     0.806665  
       5B1g    0.899978    24Ag     0.900034    10B3g    0.935091  
      10B2g    0.935091     3Au     0.937274    19B1u    0.937331  
      20B1u    0.945115    25Ag     0.982635    13B3u    0.990840  
      13B2u    0.990840     6B1g    1.005984    26Ag     1.006038  
      11B3g    1.177643    11B2g    1.177643    21B1u    1.206802  
      27Ag     1.489003    14B2u    2.948419    14B3u    2.948419  
      28Ag     3.019990    12B3g    3.037533    12B2g    3.037533  
      22B1u    3.047533    15B2u    3.067093    15B3u    3.067093  
      23B1u    3.082487    29Ag     3.190512    30Ag     3.369065  
      24B1u    3.387744    16B3u    3.394167    16B2u    3.394167  
      13B3g    3.396258    13B2g    3.396258     4Au     3.409422  
      25B1u    3.409476     7B1g    3.410247    31Ag     3.410299  
      17B2u    3.412789    17B3u    3.412789    14B3g    3.412790  
      14B2g    3.412790     5Au     3.431515    26B1u    3.431606  
      18B3u    3.437119    18B2u    3.437119    19B2u    3.438299  
      19B3u    3.438299    27B1u    3.462593    32Ag     3.544649  
       8B1g    3.597494    33Ag     3.597552     6Au     3.619255  
      28B1u    3.619312    15B2g    3.650280    15B3g    3.650280  
       9B1g    3.669335    34Ag     3.669393    29B1u    3.690976  
      20B3u    3.719352    20B2u    3.719352    16B2g    3.811389  
      16B3g    3.811389    35Ag     3.924384    30B1u    4.026308  
      36Ag     4.369173    21B2u   12.706871    21B3u   12.706871  
      17B3g   12.707494    17B2g   12.707494     7Au    12.707629  
      10B1g   12.707670    31B1u   12.707708    37Ag    12.707749  
      32B1u   12.707787    38Ag    12.708118    22B3u   12.708831  
      22B2u   12.708831    18B2g   12.708832    18B3g   12.708832  
      33B1u   12.709908    39Ag    12.709908     8Au    12.710032  
      11B1g   12.710032    19B3g   12.719694    19B2g   12.719694  
      12B1g   12.720265    40Ag    12.720407    20B3g   12.722003  
      20B2g   12.722003    41Ag    12.722623    42Ag    12.723645  
      13B1g   12.723819    23B3u   12.867197    23B2u   12.867197  
       9Au    12.867681    34B1u   12.867813    21B3g   12.868296  
      21B2g   12.868296    24B2u   12.868296    24B3u   12.868296  
      14B1g   12.868529    43Ag    12.868660    35B1u   12.876427  
      22B2g   12.879447    22B3g   12.879447    10Au    12.879789  
      36B1u   12.879982    25B2u   12.880108    25B3u   12.880108  
      26B3u   12.892347    26B2u   12.892347    44Ag    12.942404  
      37B1u   12.972620  

    Beta Occupied:                                                        

       1B1u -320.696917     1Ag  -320.696911     2Ag  -320.684632  
       2B1u  -37.865783     3Ag   -37.865695     4Ag   -37.856653  
       5Ag   -33.717596     3B1u  -33.717592     1B3g  -33.715824  
       1B2g  -33.715824     1B2u  -33.715820     1B3u  -33.715820  
       4B1u  -33.708722     2B2u  -33.705110     2B3u  -33.705110  
       5B1u   -4.085729     6Ag    -4.085685     7Ag    -4.075580  
       6B1u   -2.759212     8Ag    -2.758581     3B2u   -2.755626  
       3B3u   -2.755626     2B3g   -2.755616     2B2g   -2.755616  
       7B1u   -2.746706     4B2u   -2.743520     4B3u   -2.743520  
       9Ag    -0.357771     3B2g   -0.341693     3B3g   -0.341693  
       8B1u   -0.328929     5B3u   -0.327601     5B2u   -0.327601  
      10Ag    -0.325714     1B1g   -0.325711     9B1u   -0.324224  
       1Au    -0.324221    11Ag    -0.310234     2B1g   -0.310232  
       4B3g   -0.298373     4B2g   -0.298373    12Ag    -0.293651  
      13Ag    -0.242238  

    Beta Virtual:                                                         

      10B1u   -0.114038    14Ag    -0.021510     6B3u   -0.014268  
       6B2u   -0.014268    11B1u    0.041051     5B2g    0.047641  
       5B3g    0.047641    15Ag     0.094570    12B1u    0.094819  
       7B3u    0.107506     7B2u    0.107506    16Ag     0.126425  
       8B3u    0.157373     8B2u    0.157373     6B2g    0.175657  
       6B3g    0.175657    13B1u    0.177286    17Ag     0.189346  
       3B1g    0.189350     9B2u    0.227252     9B3u    0.227252  
      18Ag     0.232757    14B1u    0.244065     2Au     0.244066  
      19Ag     0.254465     7B3g    0.278791     7B2g    0.278791  
      15B1u    0.295321    20Ag     0.328055     4B1g    0.328055  
      16B1u    0.340996    10B3u    0.388274    10B2u    0.388274  
      21Ag     0.415079     8B3g    0.496237     8B2g    0.496237  
      22Ag     0.531651    17B1u    0.589030    18B1u    0.651315  
      11B3u    0.705783    11B2u    0.705783     9B3g    0.734871  
       9B2g    0.734871    12B3u    0.791044    12B2u    0.791044  
      23Ag     0.814490     5B1g    0.903587    24Ag     0.903635  
      10B3g    0.940211    10B2g    0.940211    19B1u    0.943589  
       3Au     0.945200    20B1u    0.945231    25Ag     0.988537  
      13B3u    0.999515    13B2u    0.999515     6B1g    1.007622  
      26Ag     1.007676    11B3g    1.183288    11B2g    1.183288  
      21B1u    1.211651    27Ag     1.493372    14B2u    2.954092  
      14B3u    2.954092    28Ag     3.026800    12B3g    3.046928  
      12B2g    3.046928    22B1u    3.051707    15B2u    3.069582  
      15B3u    3.069582    23B1u    3.089350    29Ag     3.194812  
      30Ag     3.373723    24B1u    3.392065    16B3u    3.395603  
      16B2u    3.395603    13B3g    3.401989    13B2g    3.401989  
       4Au     3.416633    25B1u    3.416695     7B1g    3.417734  
      31Ag     3.417794    17B2u    3.421484    17B3u    3.421484  
      14B3g    3.421486    14B2g    3.421486     5Au     3.430286  
      26B1u    3.430378    18B3u    3.435091    18B2u    3.435091  
      19B2u    3.442851    19B3u    3.442851    27B1u    3.466141  
      32Ag     3.546163     8B1g    3.602731    33Ag     3.602787  
       6Au     3.627888    28B1u    3.627935    15B2g    3.657381  
      15B3g    3.657381     9B1g    3.670990    34Ag     3.671048  
      29B1u    3.696603    20B3u    3.726397    20B2u    3.726397  
      16B2g    3.814828    16B3g    3.814828    35Ag     3.931757  
      30B1u    4.033179    36Ag     4.377834    21B2u   12.705794  
      21B3u   12.705794    17B3g   12.706417    17B2g   12.706417  
      31B1u   12.706662     7Au    12.706668    10B1g   12.706709  
      32B1u   12.706742    37Ag    12.706783    38Ag    12.706999  
      22B3u   12.708005    22B2u   12.708005    18B2g   12.708006  
      18B3g   12.708006    33B1u   12.709173    39Ag    12.709173  
      11B1g   12.709298     8Au    12.709298    19B3g   12.719152  
      19B2g   12.719152    12B1g   12.719791    40Ag    12.719931  
      20B3g   12.721718    20B2g   12.721718    41Ag    12.722060  
      42Ag    12.723785    13B1g   12.723960    23B3u   12.867343  
      23B2u   12.867343     9Au    12.868063    34B1u   12.868196  
      14B1g   12.868917    21B3g   12.869037    21B2g   12.869037  
      24B2u   12.869037    24B3u   12.869037    43Ag    12.869050  
      35B1u   12.876375    10Au    12.879460    36B1u   12.879653  
      22B2g   12.879715    22B3g   12.879715    25B2u   12.879916  
      25B3u   12.879916    26B3u   12.891805    26B2u   12.891805  
      44Ag    12.942808    37B1u   12.972267  

    Final Occupation by Irrep:
             Ag   B1g   B2g   B3g    Au   B1u   B2u   B3u 
    DOCC [    13,    2,    4,    4,    1,    9,    5,    5 ]
    SOCC [     0,    0,    0,    0,    0,    1,    0,    0 ]

  @DF-UKS Final Energy: -4922.35824314960155

   => Energetics <=

    Nuclear Repulsion Energy =            475.8455154796101283
    One-Electron Energy =               -7813.5162249173627060
    Two-Electron Energy =                2531.1178400780149786
    DFT Exchange-Correlation Energy =    -115.8052803498651997
    Empirical Dispersion Energy =          -0.0000934400000000
    VV10 Nonlocal Energy =                  0.0000000000000000
    Total Energy =                      -4922.3582431496015488

  UHF NO Occupations:
  HONO-2 :    4B2g 1.9999125
  HONO-1 :   13 Ag 1.9854594
  HONO-0 :   10B1u 1.0000000
  LUNO+0 :   14 Ag 0.0145406
  LUNO+1 :    5B2g 0.0000875
  LUNO+2 :    5B3g 0.0000875
  LUNO+3 :   11B1u 0.0000817


Computation Completed


Properties will be evaluated at   0.000000,   0.000000,   0.000000 [a0]

Properties computed using the SCF density matrix

  Nuclear Dipole Moment: [e a0]
     X:     0.0000      Y:     0.0000      Z:     0.0000

  Electronic Dipole Moment: [e a0]
     X:     0.0000      Y:     0.0000      Z:     0.0000

  Dipole Moment: [e a0]
     X:     0.0000      Y:     0.0000      Z:     0.0000     Total:     0.0000

  Dipole Moment: [D]
     X:     0.0000      Y:     0.0000      Z:     0.0000     Total:     0.0000


*** tstop() called on bp1-compute00115.data.bp.acrc.priv at Fri Oct 29 08:45:37 2021
Module time:
	user time   =     254.68 seconds =       4.24 minutes
	system time =      11.42 seconds =       0.19 minutes
	total time  =         12 seconds =       0.20 minutes
Total time:
	user time   =    1142.00 seconds =      19.03 minutes
	system time =      55.89 seconds =       0.93 minutes
	total time  =         59 seconds =       0.98 minutes

*** tstart() called on bp1-compute00115.data.bp.acrc.priv
*** at Fri Oct 29 08:45:37 2021


         ------------------------------------------------------------
                                   SCF GRAD                          
                          Rob Parrish, Justin Turney,                
                       Andy Simmonett, and Alex Sokolov              
         ------------------------------------------------------------

  ==> Geometry <==

    Molecular point group: d2h
    Full point group: D_inf_h

    Geometry (in Angstrom), charge = 0, multiplicity = 2:

       Center              X                  Y                   Z               Mass       
    ------------   -----------------  -----------------  -----------------  -----------------
         CU           0.000000000000     0.000000000000     0.000000000000    62.929597720000
         CU           0.000000000000     0.000000000000     2.338143471442    62.929597720000
         CU           0.000000000000     0.000000000000    -2.338143471442    62.929597720000

  Nuclear repulsion =  475.845515479610128

  ==> Basis Set <==

  Basis Set: DEF2-TZVPPD
    Blend: DEF2-TZVPPD
    Number of shells: 57
    Number of basis function: 201
    Number of Cartesian functions: 249
    Spherical Harmonics?: true
    Max angular momentum: 4

  ==> DFJKGrad: Density-Fitted SCF Gradients <==

    Gradient:                    1
    J tasked:                  Yes
    K tasked:                  Yes
    wK tasked:                  No
    OpenMP threads:             24
    Integrals threads:          24
    Memory [MiB]:           102996
    Schwarz Cutoff:          0E+00
    Fitting Condition:       1E-10

   => Auxiliary Basis Set <=

  Basis Set: (DEF2-TZVPPD AUX)
    Blend: DEF2-TZVPP-JKFIT
    Number of shells: 174
    Number of basis function: 792
    Number of Cartesian functions: 1131
    Spherical Harmonics?: true
    Max angular momentum: 6

  ==> DFT Potential <==

   => Composite Functional: MN15-D3BJ <= 

   MN15 Hybrid Meta-GGA Exchange-Correlation Functional

    H. S. Yu, X. He, S. L. Li, and D. G. Truhlar, Chem. Sci. 7, 5032-5051, 2016


    Deriv               =              1
    GGA                 =           TRUE
    Meta                =           TRUE

    Exchange Hybrid     =           TRUE
    MP2 Hybrid          =          FALSE

   => Exchange Functionals <=

    1.0000   XC_HYB_MGGA_X_MN15

   => Exact (HF) Exchange <=

    0.4400               HF 

   => Correlation Functionals <=

    1.0000   XC_MGGA_C_MN15

   => Molecular Quadrature <=

    Radial Scheme          =       TREUTLER
    Pruning Scheme         =           FLAT
    Nuclear Scheme         =       TREUTLER

    BS radius alpha        =              1
    Pruning alpha          =              1
    Radial Points          =             75
    Spherical Points       =            302
    Total Points           =          67950
    Total Blocks           =            621
    Max Points             =            253
    Max Functions          =            170


  -Total Gradient:
     Atom            X                  Y                   Z
    ------   -----------------  -----------------  -----------------
       1       -0.000000000000     0.000000000000     0.000000000000
       2        0.000000000000    -0.000000000000    -0.000336023537
       3        0.000000000000    -0.000000000000     0.000336023537


*** tstop() called on bp1-compute00115.data.bp.acrc.priv at Fri Oct 29 08:45:45 2021
Module time:
	user time   =      95.82 seconds =       1.60 minutes
	system time =       4.88 seconds =       0.08 minutes
	total time  =          8 seconds =       0.13 minutes
Total time:
	user time   =    1238.79 seconds =      20.65 minutes
	system time =      60.85 seconds =       1.01 minutes
	total time  =         67 seconds =       1.12 minutes

			-----------------------------------------
			 OPTKING 2.0: for geometry optimizations 
			  - R.A. King,  Bethel University        
			-----------------------------------------
	At level 1: Red. Int., RFO, no backsteps, dynamic trust

	Previous internal coordinate definitions found.
	---Fragment 1 Geometry and Gradient---
	 CU          0.0000000000        0.0000000000        0.0000000000
	 CU          0.0000000000        0.0000000000        4.4184508031
	 CU          0.0000000000        0.0000000000       -4.4184508031
	            -0.0000000000        0.0000000000        0.0000000000
	             0.0000000000       -0.0000000000       -0.0003360235
	             0.0000000000       -0.0000000000        0.0003360235

	---Fragment 1 Intrafragment Coordinates---
	 - Coordinate -           - BOHR/RAD -       - ANG/DEG -
	 R(1,2)           =         4.418451	       2.338143
	 R(1,3)           =         4.418451	       2.338143
	 L(2,1,3)         =         3.141593	     180.000000
	 l(2,1,3)         =         3.141593	     180.000000

	Current energy   :     -4922.3582431496

	Energy change for the previous step:
		Projected    :         0.0014129341
		Actual       :        -0.0001781237

	Performing BFGS update.
	Previous computed or guess Hessian on step 1.
	Steps to be used in Hessian update: 2 1
	Taking RFO optimization step.
	Going to follow RFO solution 1.
	Using RFO vector 1.
	Norm of target step-size    0.00760
	Projected energy change by RFO approximation:        -0.0000240584

	Back-transformation to cartesian coordinates...
	Successfully converged to displaced geometry.

	--- Internal Coordinate Step in ANG or DEG, aJ/ANG or AJ/DEG ---
	 ---------------------------------------------------------------------------
	   Coordinate                Previous        Force       Change         New 
[...]
      23A2    12.707528    47B2    12.707528    24A2    12.707667  
      31B1    12.707707    48B2    12.707748    58A1    12.707788  
      49B2    12.707828    59A1    12.708158    60A1    12.708862  
      32B1    12.708862    50B2    12.708862    25A2    12.708862  
      51B2    12.709928    61A1    12.709928    26A2    12.710051  
      33B1    12.710051    27A2    12.719776    52B2    12.719776  
      34B1    12.720346    62A1    12.720493    53B2    12.722075  
      28A2    12.722075    63A1    12.722690    64A1    12.723699  
      35B1    12.723872    65A1    12.867289    36B1    12.867289  
      29A2    12.867725    54B2    12.867857    30A2    12.868322  
      55B2    12.868322    37B1    12.868323    66A1    12.868323  
      38B1    12.868562    67A1    12.868693    56B2    12.876666  
      57B2    12.879344    31A2    12.879344    32A2    12.879873  
      58B2    12.880065    39B1    12.880176    68A1    12.880176  
      69A1    12.892221    40B1    12.892221    70A1    12.941619  
      59B2    12.971551  

    Beta Occupied:                                                        

       1B2  -320.696886     1A1  -320.696881     2A1  -320.684563  
       2B2   -37.865739     3A1   -37.865652     4A1   -37.856557  
       5A1   -33.717552     3B2   -33.717548     1A2   -33.715785  
       4B2   -33.715785     1B1   -33.715781     6A1   -33.715781  
       5B2   -33.708627     2B1   -33.705023     7A1   -33.705023  
       6B2    -4.085688     8A1    -4.085645     9A1    -4.075491  
       7B2    -2.759139    10A1    -2.758524    11A1    -2.755596  
       3B1    -2.755596     8B2    -2.755586     2A2    -2.755586  
       9B2    -2.746608    12A1    -2.743447     4B1    -2.743447  
      13A1    -0.357508    10B2    -0.341515     3A2    -0.341515  
      11B2    -0.328866    14A1    -0.327544     5B1    -0.327544  
      15A1    -0.325668     6B1    -0.325665    12B2    -0.324199  
       4A2    -0.324197    16A1    -0.310190     7B1    -0.310188  
      13B2    -0.298410     5A2    -0.298410    17A1    -0.293702  
      18A1    -0.242138  

    Beta Virtual:                                                         

      14B2    -0.114061    19A1    -0.021632    20A1    -0.014233  
       8B1    -0.014233    15B2     0.040967    16B2     0.047584  
       6A2     0.047585    21A1     0.094561    17B2     0.094781  
      22A1     0.107418     9B1     0.107418    23A1     0.126457  
      24A1     0.157369    10B1     0.157369    18B2     0.175648  
       7A2     0.175648    19B2     0.177294    25A1     0.189339  
      11B1     0.189343    26A1     0.227148    12B1     0.227148  
      27A1     0.232588    20B2     0.244009     8A2     0.244010  
      28A1     0.254156    21B2     0.278599     9A2     0.278599  
      22B2     0.295385    29A1     0.327899    13B1     0.327899  
      23B2     0.340771    30A1     0.388004    14B1     0.388004  
      31A1     0.415153    24B2     0.495921    10A2     0.495921  
      32A1     0.531328    25B2     0.588430    26B2     0.651227  
      33A1     0.706081    15B1     0.706081    27B2     0.734991  
      11A2     0.734991    34A1     0.790834    16B1     0.790834  
      35A1     0.814210    17B1     0.903833    36A1     0.903881  
      28B2     0.939760    12A2     0.939760    29B2     0.943459  
      13A2     0.945184    30B2     0.945215    37A1     0.987853  
      38A1     0.999361    18B1     0.999361    19B1     1.007411  
      39A1     1.007465    31B2     1.182548    14A2     1.182548  
      32B2     1.210451    40A1     1.491997    41A1     2.954170  
      20B1     2.954170    42A1     3.026364    33B2     3.046571  
      15A2     3.046571    34B2     3.052493    43A1     3.069584  
      21B1     3.069584    35B2     3.088044    44A1     3.194426  
      45A1     3.373438    36B2     3.391518    22B1     3.395905  
      46A1     3.395905    37B2     3.402240    16A2     3.402240  
      17A2     3.416711    38B2     3.416774    23B1     3.417795  
      47A1     3.417856    24B1     3.421495    48A1     3.421495  
      18A2     3.421497    39B2     3.421497    19A2     3.430373  
      40B2     3.430466    25B1     3.435129    49A1     3.435129  
      50A1     3.442458    26B1     3.442458    41B2     3.466319  
      51A1     3.545485    27B1     3.602784    52A1     3.602841  
      20A2     3.627835    42B2     3.627884    43B2     3.656731  
      21A2     3.656731    28B1     3.670909    53A1     3.670969  
      44B2     3.694542    54A1     3.725838    29B1     3.725838  
      22A2     3.814395    45B2     3.814395    55A1     3.930159  
      46B2     4.031355    56A1     4.375784    30B1    12.705837  
      57A1    12.705837    23A2    12.706452    47B2    12.706452  
      48B2    12.706704    24A2    12.706706    31B1    12.706746  
      49B2    12.706783    58A1    12.706823    59A1    12.707039  
      60A1    12.708037    32B1    12.708037    50B2    12.708037  
      25A2    12.708037    51B2    12.709194    61A1    12.709194  
      33B1    12.709318    26A2    12.709318    27A2    12.719239  
      52B2    12.719239    34B1    12.719876    62A1    12.720021  
      53B2    12.721793    28A2    12.721793    63A1    12.722131  
      64A1    12.723841    35B1    12.724014    65A1    12.867438  
      36B1    12.867438    29A2    12.868108    54B2    12.868241  
      37B1    12.868951    30A2    12.869064    55B2    12.869064  
      66A1    12.869064    38B1    12.869064    67A1    12.869084  
      56B2    12.876619    31A2    12.879545    57B2    12.879613  
      32A2    12.879613    58B2    12.879738    39B1    12.879984  
      68A1    12.879984    69A1    12.891679    40B1    12.891679  
      70A1    12.942023    59B2    12.971197  

    Final Occupation by Irrep:
             A1    A2    B1    B2 
    DOCC [    18,    5,    7,   13 ]
    SOCC [     0,    0,    0,    1 ]

  @DF-UKS Final Energy: -4922.35824518192385

   => Energetics <=

    Nuclear Repulsion Energy =            475.2671078062721222
    One-Electron Energy =               -7812.3647070455135690
    Two-Electron Energy =                2530.5444028340994009
    DFT Exchange-Correlation Energy =    -115.8049553267809983
    Empirical Dispersion Energy =          -0.0000934500000000
    VV10 Nonlocal Energy =                  0.0000000000000000
    Total Energy =                      -4922.3582451819238486

  UHF NO Occupations:
  HONO-2 :    5 A2 1.9999130
  HONO-1 :   18 A1 1.9853907
  HONO-0 :   14 B2 1.0000000
  LUNO+0 :   19 A1 0.0146093
  LUNO+1 :    6 A2 0.0000870
  LUNO+2 :   15 B2 0.0000870
  LUNO+3 :   16 B2 0.0000816


Computation Completed


Properties will be evaluated at   0.000000,   0.000000,   0.000000 [a0]

Properties computed using the SCF density matrix

  Nuclear Dipole Moment: [e a0]
     X:     0.0000      Y:     0.0000      Z:     0.0000

  Electronic Dipole Moment: [e a0]
     X:     0.0001      Y:     0.0000      Z:     0.0000

  Dipole Moment: [e a0]
     X:     0.0001      Y:     0.0000      Z:     0.0000     Total:     0.0001

  Dipole Moment: [D]
     X:     0.0003      Y:     0.0000      Z:     0.0000     Total:     0.0003


*** tstop() called on bp1-compute00115.data.bp.acrc.priv at Fri Oct 29 08:49:07 2021
Module time:
	user time   =     419.92 seconds =       7.00 minutes
	system time =      18.47 seconds =       0.31 minutes
	total time  =         18 seconds =       0.30 minutes
Total time:
	user time   =    5259.73 seconds =      87.66 minutes
	system time =     239.87 seconds =       4.00 minutes
	total time  =        269 seconds =       4.48 minutes

*** tstart() called on bp1-compute00115.data.bp.acrc.priv
*** at Fri Oct 29 08:49:07 2021


         ------------------------------------------------------------
                                   SCF GRAD                          
                          Rob Parrish, Justin Turney,                
                       Andy Simmonett, and Alex Sokolov              
         ------------------------------------------------------------

  ==> Geometry <==

    Molecular point group: c2v
    Full point group: C2v

    Geometry (in Angstrom), charge = 0, multiplicity = 2:

       Center              X                  Y                   Z               Mass       
    ------------   -----------------  -----------------  -----------------  -----------------
         CU          -0.000272331595     0.000000000000     0.000000000000    62.929597720000
         CU           0.000136165798     0.000000000000     2.340989000939    62.929597720000
         CU           0.000136165798     0.000000000000    -2.340989000939    62.929597720000

  Nuclear repulsion =  475.267107806272122

  ==> Basis Set <==

  Basis Set: DEF2-TZVPPD
    Blend: DEF2-TZVPPD
    Number of shells: 57
    Number of basis function: 201
    Number of Cartesian functions: 249
    Spherical Harmonics?: true
    Max angular momentum: 4

  ==> DFJKGrad: Density-Fitted SCF Gradients <==

    Gradient:                    1
    J tasked:                  Yes
    K tasked:                  Yes
    wK tasked:                  No
    OpenMP threads:             24
    Integrals threads:          24
    Memory [MiB]:           102996
    Schwarz Cutoff:          0E+00
    Fitting Condition:       1E-10

   => Auxiliary Basis Set <=

  Basis Set: (DEF2-TZVPPD AUX)
    Blend: DEF2-TZVPP-JKFIT
    Number of shells: 174
    Number of basis function: 792
    Number of Cartesian functions: 1131
    Spherical Harmonics?: true
    Max angular momentum: 6

  ==> DFT Potential <==

   => Composite Functional: MN15-D3BJ <= 

   MN15 Hybrid Meta-GGA Exchange-Correlation Functional

    H. S. Yu, X. He, S. L. Li, and D. G. Truhlar, Chem. Sci. 7, 5032-5051, 2016


    Deriv               =              1
    GGA                 =           TRUE
    Meta                =           TRUE

    Exchange Hybrid     =           TRUE
    MP2 Hybrid          =          FALSE

   => Exchange Functionals <=

    1.0000   XC_HYB_MGGA_X_MN15

   => Exact (HF) Exchange <=

    0.4400               HF 

   => Correlation Functionals <=

    1.0000   XC_MGGA_C_MN15

   => Molecular Quadrature <=

    Radial Scheme          =       TREUTLER
    Pruning Scheme         =           FLAT
    Nuclear Scheme         =       TREUTLER

    BS radius alpha        =              1
    Pruning alpha          =              1
    Radial Points          =             75
    Spherical Points       =            302
    Total Points           =          67950
    Total Blocks           =            618
    Max Points             =            254
    Max Functions          =            170


  -Total Gradient:
     Atom            X                  Y                   Z
    ------   -----------------  -----------------  -----------------
       1        0.000000796597     0.000000000000     0.000000000000
       2       -0.000000381463     0.000000000000    -0.000034939946
       3       -0.000000381463     0.000000000000     0.000034939946


*** tstop() called on bp1-compute00115.data.bp.acrc.priv at Fri Oct 29 08:49:15 2021
Module time:
	user time   =      94.18 seconds =       1.57 minutes
	system time =       4.77 seconds =       0.08 minutes
	total time  =          8 seconds =       0.13 minutes
Total time:
	user time   =    5355.15 seconds =      89.25 minutes
	system time =     244.72 seconds =       4.08 minutes
	total time  =        277 seconds =       4.62 minutes

         ----------------------------------------------------------
                                   FINDIF
                     R. A. King and Jonathon Misiewicz
         ---------------------------------------------------------

  Computing second-derivative from gradients using projected, 
  symmetry-adapted, cartesian coordinates.

  6 gradients passed in, including the reference geometry.
  Generating complete list of displacements from unique ones.

    Operation 3 takes plus displacements of irrep B1u to minus ones.
    Operation 2 takes plus displacements of irrep B2u to minus ones.
    Operation 2 takes plus displacements of irrep B3u to minus ones.

-------------------------------------------------------------


  ==> Harmonic Vibrational Analysis <==

  non-mass-weighted Hessian:       Symmetric? True   Hermitian? True   Lin Dep Dim?  5 (0)
  projection of translations (True) and rotations (True) removed 5 degrees of freedom (5)
  total projector:                 Symmetric? True   Hermitian? True   Lin Dep Dim?  5 (5)
  mass-weighted Hessian:           Symmetric? True   Hermitian? True   Lin Dep Dim?  5 (0)
  pre-proj  low-frequency mode:    0.0000i [cm^-1]
  pre-proj  low-frequency mode:    0.0000i [cm^-1]
  pre-proj  low-frequency mode:    0.0000i [cm^-1]
  pre-proj  low-frequency mode:    0.0000i [cm^-1]
  pre-proj  low-frequency mode:    0.0000  [cm^-1]
  pre-proj  low-frequency mode:    0.0000  [cm^-1]
  pre-proj  low-frequency mode:    0.0000  [cm^-1]
  pre-proj  all modes:['25.3145i' '25.3143i' '0.0000i' '0.0000i' '0.0000' '0.0000' '0.0000'
 '152.8686' '248.7110']
  projected mass-weighted Hessian: Symmetric? True   Hermitian? True   Lin Dep Dim?  5 (5)
  post-proj low-frequency mode:   25.3145i [cm^-1] (V)
  post-proj low-frequency mode:   25.3143i [cm^-1] (V)
  post-proj low-frequency mode:    0.0000i [cm^-1] (TR)
  post-proj low-frequency mode:    0.0000i [cm^-1] (TR)
  post-proj low-frequency mode:    0.0000i [cm^-1] (TR)
  post-proj low-frequency mode:    0.0000  [cm^-1] (TR)
  post-proj low-frequency mode:    0.0000  [cm^-1] (TR)
  post-proj  all modes:['25.3145i' '25.3143i' '0.0000i' '0.0000i' '0.0000i' '0.0000' '0.0000'
 '152.8686' '248.7110']

  Vibration                       1                   2                   8           
  Freq [cm^-1]                 25.3145i            25.3143i            152.8686       
  Irrep                          B2u                 B3u                  Ag          
  Reduced mass [u]             62.9296             62.9296             62.9296        
  Force const [mDyne/A]        -0.0238             -0.0238              0.8664        
  Turning point v=0 [a0]        0.0000              0.0000              0.1119        
  RMS dev v=0 [a0 u^1/2]        0.0000              0.0000              0.6275        
  Char temp [K]                 0.0000              0.0000             219.9438       
  ----------------------------------------------------------------------------------
      1   CU               0.00  0.82 -0.00    0.82  0.00  0.00   -0.00 -0.00 -0.00   
      2   CU               0.00 -0.41 -0.00   -0.41  0.00 -0.00    0.00 -0.00  0.71   
      3   CU               0.00 -0.41 -0.00   -0.41 -0.00 -0.00   -0.00  0.00 -0.71   

  Vibration                       9           
  Freq [cm^-1]                 248.7110       
  Irrep                          B1u          
  Reduced mass [u]             62.9296        
  Force const [mDyne/A]         2.2935        
  Turning point v=0 [a0]        0.0877        
  RMS dev v=0 [a0 u^1/2]        0.4920        
  Char temp [K]                357.8397       
  ----------------------------------------------------------------------------------
      1   CU              -0.00 -0.00  0.82   
      2   CU              -0.00 -0.00 -0.41   
      3   CU               0.00  0.00 -0.41   

  ==> Thermochemistry Components <==

  Entropy, S
    Electronic S            1.377 [cal/(mol K)]        5.763 [J/(mol K)]       0.00219507 [mEh/K] (multiplicity = 2)
    Translational S        41.612 [cal/(mol K)]      174.105 [J/(mol K)]       0.06631321 [mEh/K] (mol. weight = 188.7888 [u], P = 101325.00 [Pa])
    Rotational S           18.585 [cal/(mol K)]       77.758 [J/(mol K)]       0.02961653 [mEh/K] (symmetry no. = 2)
    Vibrational S           4.376 [cal/(mol K)]       18.309 [J/(mol K)]       0.00697346 [mEh/K]
  Total S                  65.950 [cal/(mol K)]      275.935 [J/(mol K)]       0.10509827 [mEh/K]
  Correction S              0.000 [cal/(mol K)]        0.000 [J/(mol K)]       0.00000000 [mEh/K]

  Constant volume heat capacity, Cv
    Electronic Cv           0.000 [cal/(mol K)]        0.000 [J/(mol K)]       0.00000000 [mEh/K]
    Translational Cv        2.981 [cal/(mol K)]       12.472 [J/(mol K)]       0.00475022 [mEh/K]
    Rotational Cv           1.987 [cal/(mol K)]        8.314 [J/(mol K)]       0.00316681 [mEh/K]
    Vibrational Cv          3.664 [cal/(mol K)]       15.332 [J/(mol K)]       0.00583958 [mEh/K]
  Total Cv                  8.632 [cal/(mol K)]       36.118 [J/(mol K)]       0.01375660 [mEh/K]
  Correction Cv             0.000 [cal/(mol K)]        0.000 [J/(mol K)]       0.00000000 [mEh/K]

  Constant pressure heat capacity, Cp
    Electronic Cp           0.000 [cal/(mol K)]        0.000 [J/(mol K)]       0.00000000 [mEh/K]
    Translational Cp        4.968 [cal/(mol K)]       20.786 [J/(mol K)]       0.00791703 [mEh/K]
    Rotational Cp           1.987 [cal/(mol K)]        8.314 [J/(mol K)]       0.00316681 [mEh/K]
    Vibrational Cp          3.664 [cal/(mol K)]       15.332 [J/(mol K)]       0.00583958 [mEh/K]
  Total Cp                 10.620 [cal/(mol K)]       44.432 [J/(mol K)]       0.01692341 [mEh/K]
  Correction Cp             0.000 [cal/(mol K)]        0.000 [J/(mol K)]       0.00000000 [mEh/K]

  ==> Thermochemistry Energy Analysis <==

  Raw electronic energy, E0
  Total E0, Electronic energy at well bottom at 0 [K]                -4922.35824518 [Eh]

  Zero-point energy, ZPE_vib = Sum_i nu_i / 2
    Electronic ZPE          0.000 [kcal/mol]        0.000 [kJ/mol]       0.00000000 [Eh]
    Translational ZPE       0.000 [kcal/mol]        0.000 [kJ/mol]       0.00000000 [Eh]
    Rotational ZPE          0.000 [kcal/mol]        0.000 [kJ/mol]       0.00000000 [Eh]
    Vibrational ZPE         0.574 [kcal/mol]        2.402 [kJ/mol]       0.00091487 [Eh]         200.790 [cm^-1]
  Correction ZPE            0.574 [kcal/mol]        2.402 [kJ/mol]       0.00091487 [Eh]         200.790 [cm^-1]
  Total ZPE, Electronic energy at 0 [K]                              -4922.35733032 [Eh]

  Thermal Energy, E (includes ZPE)
    Electronic E            0.000 [kcal/mol]        0.000 [kJ/mol]       0.00000000 [Eh]
    Translational E         0.889 [kcal/mol]        3.718 [kJ/mol]       0.00141628 [Eh]
    Rotational E            0.592 [kcal/mol]        2.479 [kJ/mol]       0.00094418 [Eh]
    Vibrational E           1.281 [kcal/mol]        5.360 [kJ/mol]       0.00204151 [Eh]
  Correction E              2.762 [kcal/mol]       11.557 [kJ/mol]       0.00440197 [Eh]
  Total E, Electronic energy at  298.15 [K]                          -4922.35384321 [Eh]

  Enthalpy, H_trans = E_trans + k_B * T
    Electronic H            0.000 [kcal/mol]        0.000 [kJ/mol]       0.00000000 [Eh]
    Translational H         1.481 [kcal/mol]        6.197 [kJ/mol]       0.00236046 [Eh]
    Rotational H            0.592 [kcal/mol]        2.479 [kJ/mol]       0.00094418 [Eh]
    Vibrational H           1.281 [kcal/mol]        5.360 [kJ/mol]       0.00204151 [Eh]
  Correction H              3.355 [kcal/mol]       14.036 [kJ/mol]       0.00534616 [Eh]
  Total H, Enthalpy at  298.15 [K]                                   -4922.35289902 [Eh]

  Gibbs free energy, G = H - T * S
    Electronic G           -0.411 [kcal/mol]       -1.718 [kJ/mol]      -0.00065446 [Eh]
    Translational G       -10.925 [kcal/mol]      -45.712 [kJ/mol]      -0.01741082 [Eh]
    Rotational G           -4.949 [kcal/mol]      -20.705 [kJ/mol]      -0.00788598 [Eh]
    Vibrational G          -0.024 [kcal/mol]       -0.099 [kJ/mol]      -0.00003762 [Eh]
  Correction G            -16.308 [kcal/mol]      -68.234 [kJ/mol]      -0.02598889 [Eh]
  Total G, Free enthalpy at  298.15 [K]                              -4922.38423407 [Eh]

    Psi4 stopped on: Friday, 29 October 2021 08:49AM
    Psi4 wall time for execution: 0:04:36.44

*** Psi4 exiting successfully. Buy a developer a beer!
