Optimizer: Optimization complete!
 6 displacements needed.
 1 2 3 4 5 6
Warning: used thermodynamics relations inappropriate for low-frequency modes: ['172.1939' '172.6097' '244.2026']
At level 1: Red. Int., RFO, no backsteps, dynamic trust
At level 1: Red. Int., RFO, no backsteps, dynamic trust
At level 1: Red. Int., RFO, no backsteps, dynamic trust
At level 1: Red. Int., RFO, no backsteps, dynamic trust
 Richard, J. F. Gonthier, A. M. James,
    H. R. McAlexander, A. Kumar, M. Saitow, X. Wang, B. P. Pritchard,
    P. Verma, H. F. Schaefer III, K. Patkowski, R. A. King, E. F. Valeev,
    F. A. Evangelista, J. M. Turney, T. D. Crawford, and C. D. Sherrill,
    J. Chem. Theory Comput. 13(7) pp 3185--3197 (2017).
    (doi: 10.1021/acs.jctc.7b00174)


                         Additional Contributions by
    P. Kraus, H. Kruse, M. H. Lechner, M. C. Schieber, R. A. Shaw,
    A. Alenaizan, R. Galvelis, Z. L. Glick, S. Lehtola, and J. P. Misiewicz

    -----------------------------------------------------------------------


    Psi4 started on: Friday, 29 October 2021 08:40AM

    Process ID: 162916
    Host:       bp1-compute00133.data.bp.acrc.priv
    PSIDATADIR: /work/zw18965/.conda/envs/p4env/share/psi4
    Memory:     500.0 MiB
    Threads:    24
    
  ==> Input File <==

--------------------------------------------------------------------------
memory 144 GB

molecule {
1 1
Cu       0.000000    1.349261   -0.000000 
Cu       1.168494   -0.674630    0.000000 
Cu      -1.168494   -0.674630   -0.000000 
 }

set dynamic_level 1
set basis Def2-TZVPPD

optimize("MN15-D3BJ")
frequencies("MN15-D3BJ")
--------------------------------------------------------------------------

  Memory set to 134.110 GiB by Python driver.
gradient() will perform analytic gradient computation.

*** tstart() called on bp1-compute00133.data.bp.acrc.priv
*** at Fri Oct 29 08:40:59 2021

   => Loading Basis Set <=

    Name: DEF2-TZVPPD
    Role: ORBITAL
    Keyword: BASIS
    atoms 1-3 entry CU         line  1290 file /work/zw18965/.conda/envs/p4env/share/psi4/basis/def2-tzvppd.gbs 


         ---------------------------------------------------------
                                   SCF
               by Justin Turney, Rob Parrish, Andy Simmonett
                          and Daniel G. A. Smith
                              RKS Reference
                       24 Threads, 137329 MiB Core
         ---------------------------------------------------------

  ==> Geometry <==

    Molecular point group: c2v
    Full point group: C2v

    Geometry (in Angstrom), charge = 1, multiplicity = 1:

       Center              X                  Y                   Z               Mass       
    ------------   -----------------  -----------------  -----------------  -----------------
         CU           0.000000000000     0.000000000000     1.349260666667    62.929597720000
         CU           1.168494000000     0.000000000000    -0.674630333333    62.929597720000
         CU          -1.168494000000    -0.000000000000    -0.674630333333    62.929597720000

  Running in c2v symmetry.

  Rotational constants: A =      0.09810  B =      0.09810  C =      0.04905 [cm^-1]
  Rotational constants: A =   2940.89335  B =   2940.89328  C =   1470.44666 [MHz]
  Nuclear repulsion =  571.296940641642436

  Charge       = 1
  Multiplicity = 1
  Electrons    = 86
  Nalpha       = 43
  Nbeta        = 43

  ==> Algorithm <==

  SCF Algorithm Type is DF.
  DIIS enabled.
  MOM disabled.
  Fractional occupation disabled.
  Guess Type is SAD.
  Energy threshold   = 1.00e-08
  Density threshold  = 1.00e-08
  Integral threshold = 0.00e+00

  ==> Primary Basis <==

  Basis Set: DEF2-TZVPPD
    Blend: DEF2-TZVPPD
    Number of shells: 57
    Number of basis function: 201
    Number of Cartesian functions: 249
    Spherical Harmonics?: true
    Max angular momentum: 4

  ==> DFT Potential <==

   => Composite Functional: MN15-D3BJ <= 

   MN15 Hybrid Meta-GGA Exchange-Correlation Functional

    H. S. Yu, X. He, S. L. Li, and D. G. Truhlar, Chem. Sci. 7, 5032-5051, 2016


    Deriv               =              1
    GGA                 =           TRUE
    Meta                =           TRUE

    Exchange Hybrid     =           TRUE
    MP2 Hybrid          =          FALSE

   => Exchange Functionals <=

    1.0000   XC_HYB_MGGA_X_MN15

   => Exact (HF) Exchange <=

    0.4400               HF 

   => Correlation Functionals <=

    1.0000   XC_MGGA_C_MN15

   => Molecular Quadrature <=

    Radial Scheme          =       TREUTLER
    Pruning Scheme         =           FLAT
    Nuclear Scheme         =       TREUTLER

    BS radius alpha        =              1
    Pruning alpha          =              1
    Radial Points          =             75
    Spherical Points       =            302
    Total Points           =          67950
    Total Blocks           =            596
    Max Points             =            254
    Max Functions          =            191

   => MN15-D3(BJ): Empirical Dispersion <=

    Grimme's -D3 (BJ-damping) Dispersion Correction
    Grimme S.; Ehrlich S.; Goerigk L. (2011), J. Comput. Chem., 32: 1456
    Parametrisation from:    L. Goerigk, A. Hansen, C. Bauer, S. Ehrlich, A. Najibi, S. Grimme, Phys. Chem. Chem. Phys. 19, 32184-32215, 2017

        s6 =       1.000000
        s8 =       2.097100
        a1 =       0.786200
        a2 =       7.592300

   => Loading Basis Set <=

    Name: (DEF2-TZVPPD AUX)
    Role: JKFIT
    Keyword: DF_BASIS_SCF
    atoms 1-3 entry CU         line  2361 file /work/zw18965/.conda/envs/p4env/share/psi4/basis/def2-tzvpp-jkfit.gbs 

  ==> Pre-Iterations <==

   -------------------------------------------------------
    Irrep   Nso     Nmo     Nalpha   Nbeta   Ndocc  Nsocc
   -------------------------------------------------------
     A1        70      70       0       0       0       0
     A2        32      32       0       0       0       0
     B1        59      59       0       0       0       0
     B2        40      40       0       0       0       0
   -------------------------------------------------------
    Total     201     201      43      43      43       0
   -------------------------------------------------------

  ==> Integral Setup <==

  DFHelper Memory: AOs need 0.246 GiB; user supplied 99.940 GiB. Using in-core AOs.

  ==> MemDFJK: Density-Fitted J/K Matrices <==

    J tasked:                   Yes
    K tasked:                   Yes
    wK tasked:                   No
    OpenMP threads:              24
    Memory [MiB]:            102338
    Algorithm:                 Core
    Schwarz Cutoff:           1E-12
    Mask sparsity (%):       6.9305
    Fitting Condition:        1E-10

   => Auxiliary Basis Set <=

  Basis Set: (DEF2-TZVPPD AUX)
    Blend: DEF2-TZVPP-JKFIT
    Number of shells: 174
    Number of basis function: 792
    Number of Cartesian functions: 1131
    Spherical Harmonics?: true
    Max angular momentum: 6

  Cached 100.0% of DFT collocation blocks in 0.643 [GiB].

  Minimum eigenvalue in the overlap matrix is 7.6765794614E-04.
  Using Symmetric Orthogonalization.

  SCF Guess: Superposition of Atomic Densities via on-the-fly atomic UHF.

  ==> Iterations <==

                           Total Energy        Delta E     RMS |[F,P]|

   @DF-RKS iter SAD: -4915.40109049842067   -4.91540e+03   0.00000e+00 
    Occupation by irrep:
             A1    A2    B1    B2 
    DOCC [    20,    3,   13,    7 ]

   @DF-RKS iter   1: -4913.76156634766630    1.63952e+00   6.96584e-02 DIIS
    Occupation by irrep:
             A1    A2    B1    B2 
    DOCC [    18,    5,   13,    7 ]

   @DF-RKS iter   2: -4784.17236578713801    1.29589e+02   1.59571e-01 DIIS
   @DF-RKS iter   3: -4919.93430734506455   -1.35762e+02   2.96919e-02 DIIS
   @DF-RKS iter   4: -4921.60410090407913   -1.66979e+00   1.78110e-02 DIIS
   @DF-RKS iter   5: -4922.10487817094054   -5.00777e-01   5.60494e-03 DIIS
   @DF-RKS iter   6: -4922.13195690106841   -2.70787e-02   3.74276e-03 DIIS
   @DF-RKS iter   7: -4922.15391048464880   -2.19536e-02   7.57857e-04 DIIS
   @DF-RKS iter   8: -4922.15503233845720   -1.12185e-03   1.10613e-04 DIIS
   @DF-RKS iter   9: -4922.15505965419015   -2.73157e-05   1.45743e-05 DIIS
   @DF-RKS iter  10: -4922.15506047253075   -8.18341e-07   8.71906e-06 DIIS
   @DF-RKS iter  11: -4922.15506078569069   -3.13160e-07   1.32557e-06 DIIS
   @DF-RKS iter  12: -4922.15506081688727   -3.11966e-08   1.04170e-06 DIIS
   @DF-RKS iter  13: -4922.15506082345564   -6.56837e-09   2.35990e-07 DIIS
   @DF-RKS iter  14: -4922.15506082376487   -3.09228e-10   1.66201e-08 DIIS
   @DF-RKS iter  15: -4922.15506082375941    5.45697e-12   4.83262e-09 DIIS
  Energy and wave function converged.


  ==> Post-Iterations <==

    Orbital Energies [Eh]
    ---------------------

    Doubly Occupied:                                                      

       1B1  -320.904332     1A1  -320.904331     2A1  -320.904315  
       2B1   -38.072875     3A1   -38.072873     4A1   -38.072629  
       3B1   -33.924875     5A1   -33.924874     6A1   -33.924859  
       4B1   -33.923399     7A1   -33.923378     5B1   -33.923376  
       1A2   -33.921141     1B2   -33.921140     2B2   -33.921129  
       8A1    -4.293959     6B1    -4.293271     9A1    -4.293269  
      10A1    -2.967601    11A1    -2.966277     7B1    -2.966276  
       8B1    -2.963885     9B1    -2.962586    12A1    -2.962581  
       3B2    -2.961887     2A2    -2.961413     4B2    -2.961410  
      13A1    -0.574358    14A1    -0.557867    10B1    -0.557864  
       5B2    -0.557232    15A1    -0.545840     3A2    -0.542005  
       6B2    -0.542003    11B1    -0.523463    16A1    -0.523458  
       4A2    -0.520452    17A1    -0.517091    12B1    -0.517087  
       5A2    -0.516867     7B2    -0.516854    13B1    -0.500359  
      18A1    -0.471178  

    Virtual:                                                              

      19A1    -0.246271    14B1    -0.246269     8B2    -0.193761  
      20A1    -0.134826    15B1    -0.122881    21A1    -0.122876  
       9B2    -0.073672     6A2    -0.073668    16B1    -0.034967  
      22A1    -0.034967    17B1    -0.002644    23A1    -0.000346  
      10B2     0.006792    24A1     0.008012    18B1     0.026461  
      25A1     0.026462    11B2     0.051684     7A2     0.051687  
      26A1     0.070137     8A2     0.096291    12B2     0.096298  
      19B1     0.098396    20B1     0.102339    27A1     0.102340  
      28A1     0.114473    21B1     0.114474    13B2     0.125357  
      29A1     0.185797    22B1     0.185799     9A2     0.211113  
      30A1     0.216492    23B1     0.238033    31A1     0.238038  
      14B2     0.241148    10A2     0.241149    24B1     0.334176  
      25B1     0.358711    32A1     0.358719    15B2     0.489903  
      33A1     0.497113    34A1     0.549570    26B1     0.549597  
      11A2     0.604055    16B2     0.604067    35A1     0.636567  
      36A1     0.661712    27B1     0.661715    17B2     0.668033  
      18B2     0.694596    12A2     0.694597    37A1     0.779362  
      28B1     0.794911    38A1     0.795641    29B1     0.795657  
      13A2     0.872849    30B1     0.884993    39A1     0.884994  
      19B2     0.925627    14A2     0.925669    31B1     1.088685  
      40A1     1.088697    32B1     1.113748    20B2     2.749185  
      33B1     2.821888    41A1     2.821943    21B2     2.854021  
      15A2     2.854099    42A1     2.864288    34B1     2.864331  
      43A1     2.868754    44A1     2.891807    35B1     2.983592  
      45A1     3.153048    22B2     3.181638    16A2     3.183890  
      23B2     3.183898    36B1     3.202561    46A1     3.202596  
      37B1     3.206236    47A1     3.206248    24B2     3.208446  
      38B1     3.209438    48A1     3.209450    25B2     3.210173  
      17A2     3.210234    18A2     3.212529    39B1     3.212942  
      26B2     3.213485    19A2     3.213513    49A1     3.248081  
      40B1     3.254451    50A1     3.254460    41B1     3.286494  
      51A1     3.339798    42B1     3.339829    20A2     3.429916  
      27B2     3.430026    52A1     3.430480    28B2     3.462143  
      43B1     3.484884    53A1     3.484889    21A2     3.506540  
      22A2     3.555640    29B2     3.555650    54A1     3.686479  
      44B1     3.686515    55A1     3.701395    45B1     3.752214  
      46B1     3.993123    56A1     3.993149    57A1    12.497723  
      47B1    12.498165    48B1    12.498389    58A1    12.498391  
      59A1    12.499259    49B1    12.499283    30B2    12.499719  
      23A2    12.499762    31B2    12.499823    24A2    12.500010  
      32B2    12.500282    25A2    12.500340    60A1    12.501096  
      50B1    12.501208    51B1    12.501760    61A1    12.501779  
      26A2    12.501886    33B2    12.501897    34B2    12.501979  
      62A1    12.502154    52B1    12.502213    27A2    12.502406  
      28A2    12.502434    35B2    12.502441    63A1    12.502487  
      53B1    12.502858    64A1    12.502923    65A1    12.659125  
      29A2    12.659236    36B2    12.659255    66A1    12.659369  
      54B1    12.659405    37B2    12.660144    38B2    12.661331  
      30A2    12.661350    55B1    12.661989    56B1    12.662409  
      67A1    12.662431    39B2    12.664817    31A2    12.669081  
      68A1    12.672953    57B1    12.674304    69A1    12.674339  
      32A2    12.677911    40B2    12.677981    58B1    12.750014  
      70A1    12.754342    59B1    12.754370  

    Final Occupation by Irrep:
             A1    A2    B1    B2 
    DOCC [    18,    5,   13,    7 ]

  @DF-RKS Final Energy: -4922.15506082375941

   => Energetics <=

    Nuclear Repulsion Energy =            571.2969406416424363
    One-Electron Energy =               -7986.1171687123787706
    Two-Electron Energy =                2608.3824612095954762
    DFT Exchange-Correlation Energy =    -115.7172009826190333
    Empirical Dispersion Energy =          -0.0000929800000000
    VV10 Nonlocal Energy =                  0.0000000000000000
    Total Energy =                      -4922.1550608237603228

Computation Completed


Properties will be evaluated at   0.000000,   0.000000,   0.000000 [a0]

Properties computed using the SCF density matrix

  Nuclear Dipole Moment: [e a0]
     X:     0.0000      Y:     0.0000      Z:    -0.0000

  Electronic Dipole Moment: [e a0]
     X:     0.0000      Y:     0.0000      Z:    -0.0001

  Dipole Moment: [e a0]
     X:     0.0000      Y:     0.0000      Z:    -0.0001     Total:     0.0001

  Dipole Moment: [D]
     X:     0.0000      Y:     0.0000      Z:    -0.0002     Total:     0.0002


*** tstop() called on bp1-compute00133.data.bp.acrc.priv at Fri Oct 29 08:41:02 2021
Module time:
	user time   =      59.81 seconds =       1.00 minutes
	system time =       3.36 seconds =       0.06 minutes
	total time  =          3 seconds =       0.05 minutes
Total time:
	user time   =      59.81 seconds =       1.00 minutes
	system time =       3.36 seconds =       0.06 minutes
	total time  =          3 seconds =       0.05 minutes

*** tstart() called on bp1-compute00133.data.bp.acrc.priv
*** at Fri Oct 29 08:41:02 2021


         ------------------------------------------------------------
                                   SCF GRAD                          
                          Rob Parrish, Justin Turney,                
                       Andy Simmonett, and Alex Sokolov              
         ------------------------------------------------------------

  ==> Geometry <==

    Molecular point group: c2v
    Full point group: C2v

    Geometry (in Angstrom), charge = 1, multiplicity = 1:

       Center              X                  Y                   Z               Mass       
    ------------   -----------------  -----------------  -----------------  -----------------
         CU           0.000000000000     0.000000000000     1.349260666667    62.929597720000
         CU           1.168494000000     0.000000000000    -0.674630333333    62.929597720000
         CU          -1.168494000000    -0.000000000000    -0.674630333333    62.929597720000

  Nuclear repulsion =  571.296940641642436

  ==> Basis Set <==

  Basis Set: DEF2-TZVPPD
    Blend: DEF2-TZVPPD
    Number of shells: 57
    Number of basis function: 201
    Number of Cartesian functions: 249
    Spherical Harmonics?: true
    Max angular momentum: 4

  ==> DFJKGrad: Density-Fitted SCF Gradients <==

    Gradient:                    1
    J tasked:                  Yes
    K tasked:                  Yes
    wK tasked:                  No
    OpenMP threads:             24
    Integrals threads:          24
    Memory [MiB]:           102996
    Schwarz Cutoff:          0E+00
    Fitting Condition:       1E-10

   => Auxiliary Basis Set <=

  Basis Set: (DEF2-TZVPPD AUX)
    Blend: DEF2-TZVPP-JKFIT
    Number of shells: 174
    Number of basis function: 792
    Number of Cartesian functions: 1131
    Spherical Harmonics?: true
    Max angular momentum: 6

  ==> DFT Potential <==

   => Composite Functional: MN15-D3BJ <= 

   MN15 Hybrid Meta-GGA Exchange-Correlation Functional

    H. S. Yu, X. He, S. L. Li, and D. G. Truhlar, Chem. Sci. 7, 5032-5051, 2016


    Deriv               =              1
    GGA                 =           TRUE
    Meta                =           TRUE

    Exchange Hybrid     =           TRUE
    MP2 Hybrid          =          FALSE

   => Exchange Functionals <=

    1.0000   XC_HYB_MGGA_X_MN15

   => Exact (HF) Exchange <=

    0.4400               HF 

   => Correlation Functionals <=

    1.0000   XC_MGGA_C_MN15

   => Molecular Quadrature <=

    Radial Scheme          =       TREUTLER
    Pruning Scheme         =           FLAT
    Nuclear Scheme         =       TREUTLER

    BS radius alpha        =              1
    Pruning alpha          =              1
    Radial Points          =             75
    Spherical Points       =            302
    Total Points           =          67950
    Total Blocks           =            596
    Max Points             =            254
    Max Functions          =            191


  -Total Gradient:
     Atom            X                  Y                   Z
    ------   -----------------  -----------------  -----------------
       1        0.000000000000     0.000000000000    -0.009040368429
       2       -0.007819045627    -0.000000000000     0.004538599235
       3        0.007819045627     0.000000000000     0.004538599235


*** tstop() called on bp1-compute00133.data.bp.acrc.priv at Fri Oct 29 08:41:08 2021
Module time:
	user time   =      52.66 seconds =       0.88 minutes
	system time =       3.02 seconds =       0.05 minutes
	total time  =          6 seconds =       0.10 minutes
Total time:
	user time   =     113.66 seconds =       1.89 minutes
	system time =       6.45 seconds =       0.11 minutes
	total time  =          9 seconds =       0.15 minutes

			-----------------------------------------
			 OPTKING 2.0: for geometry optimizations 
			  - R.A. King,  Bethel University        
			-----------------------------------------
	At level 1: Red. Int., RFO, no backsteps, dynamic trust

	Internal coordinates to be generated automatically.
	Detected frag 1 with atoms:  1 2 3
	---Fragment 1 Bond Connectivity---
	 1 : 2 3
	 2 : 1 3
	 3 : 1 2

	---Fragment 1 Geometry and Gradient---
	 CU          0.0000000000        0.0000000000        2.5497331319
	 CU          2.2081336392        0.0000000000       -1.2748665659
	 CU         -2.2081336392       -0.0000000000       -1.2748665659
	             0.0000000000        0.0000000000       -0.0090403684
	            -0.0078190456       -0.0000000000        0.0045385992
	             0.0078190456        0.0000000000        0.0045385992

	Previous optimization step data not found.  Starting new optimization.

	---Fragment 1 Intrafragment Coordinates---
	 - Coordinate -           - BOHR/RAD -       - ANG/DEG -
	 R(1,2)           =         4.416267	       2.336988
	 R(1,3)           =         4.416267	       2.336988
	 R(2,3)           =         4.416267	       2.336988
	 B(1,2,3)         =         1.047198	      60.000000
	 B(1,3,2)         =         1.047198	      60.000000
	 B(2,1,3)         =         1.047198	      59.999999

	Current energy   :     -4922.1550608238

	Generating empirical Hessian (Schlegel '84) for each fragment.
	Taking RFO optimization step.
	Going to follow RFO solution 1.
	Using RFO vector 1.
	Norm of target step-size    0.06721
	Projected energy change by RFO approximation:        -0.0006054052

	Back-transformation to cartesian coordinates...
	Successfully converged to displaced geometry.

	--- Internal Coordinate Step in ANG or DEG, aJ/ANG or AJ/DEG ---
	 ---------------------------------------------------------------------------
	   Coordinate                Previous        Force       Change         New 
	   ----------                --------       ------       ------       ------
	    1 R(1,2)          =      2.336988     0.043052     0.020555     2.357543
	    2 R(1,3)          =      2.336988     0.043052     0.020555     2.357543
	    3 R(2,3)          =      2.336988     0.042904     0.020491     2.357479
	    4 B(1,2,3)        =     60.000000     0.000000     0.000892    60.000893
	    5 B(1,3,2)        =     60.000000     0.000000     0.000892    60.000893
	    6 B(2,1,3)        =     59.999999    -0.000000    -0.001785    59.998215
	 ---------------------------------------------------------------------------
	Successfully symmetrized geometry.

  ==> Convergence Check <==

  Measures of convergence in internal coordinates in au.
  Criteria marked as inactive (o), active & met (*), and active & unmet ( ).
  --------------------------------------------------------------------------------------------- ~
   Step     Total Energy     Delta E     MAX Force     RMS Force      MAX Disp      RMS Disp    ~
  --------------------------------------------------------------------------------------------- ~
    Convergence Criteria    1.00e-06 *    3.00e-04 *             o    1.20e-03 *             o  ~
  --------------------------------------------------------------------------------------------- ~
      1   -4922.15506082   -4.92e+03      5.23e-03      3.69e-03 o    3.88e-02      2.74e-02 o  ~
  ---------------------------------------------------------------------------------------------

	Writing optimization data to binary file.
	Structure for next step:
	Cartesian Geometry (in Angstrom)
	   CU     0.0000000000  -0.0000000000   1.3611402855
	   CU     1.1787396533   0.0000000000  -0.6805701427
	   CU    -1.1787396533  -0.0000000000  -0.6805701427
			--------------------------
			 OPTKING Finished Execution 
			--------------------------

    Structure for next step:
    Molecular point group: c2v
    Full point group: C2v

    Geometry (in Angstrom), charge = 1, multiplicity = 1:

    CU           0.000000000000    -0.000000000000     1.361140290826
    CU           1.178739657962     0.000000000000    -0.680570145413
    CU          -1.178739657962    -0.000000000000    -0.680570145413

gradient() will perform analytic gradient computation.

*** tstart() called on bp1-compute00133.data.bp.acrc.priv
*** at Fri Oct 29 08:41:08 2021

   => Loading Basis Set <=

    Name: DEF2-TZVPPD
    Role: ORBITAL
    Keyword: BASIS
    atoms 1-3 entry CU         line  1290 file /work/zw18965/.conda/envs/p4env/share/psi4/basis/def2-tzvppd.gbs 


         ---------------------------------------------------------
                                   SCF
               by Justin Turney, Rob Parrish, Andy Simmonett
                          and Daniel G. A. Smith
                              RKS Reference
                       24 Threads, 137329 MiB Core
         ---------------------------------------------------------

  ==> Geometry <==

    Molecular point group: c2v
    Full point group: C2v

    Geometry (in Angstrom), charge = 1, multiplicity = 1:

       Center              X                  Y                   Z               Mass       
    ------------   -----------------  -----------------  -----------------  -----------------
         CU           0.000000000000    -0.000000000000     1.361140290826    62.929597720000
         CU           1.178739657962     0.000000000000    -0.680570145413    62.929597720000
         CU          -1.178739657962    -0.000000000000    -0.680570145413    62.929597720000

  Running in c2v symmetry.

  Rotational constants: A =      0.09640  B =      0.09639  C =      0.04820 [cm^-1]
  Rotational constants: A =   2889.99078  B =   2889.78282  C =   1444.94340 [MHz]
  Nuclear repulsion =  566.321017028073129

  Charge       = 1
  Multiplicity = 1
  Electrons    = 86
  Nalpha       = 43
  Nbeta        = 43

  ==> Algorithm <==

  SCF Algorithm Type is DF.
  DIIS enabled.
  MOM disabled.
  Fractional occupation disabled.
  Guess Type is READ.
  Energy threshold   = 1.00e-08
  Density threshold  = 1.00e-08
  Integral threshold = 0.00e+00

  ==> Primary Basis <==

  Basis Set: DEF2-TZVPPD
    Blend: DEF2-TZVPPD
    Number of shells: 57
    Number of basis function: 201
    Number of Cartesian functions: 249
    Spherical Harmonics?: true
    Max angular momentum: 4

  ==> DFT Potential <==

   => Composite Functional: MN15-D3BJ <= 

   MN15 Hybrid Meta-GGA Exchange-Correlation Functional

    H. S. Yu, X. He, S. L. Li, and D. G. Truhlar, Chem. Sci. 7, 5032-5051, 2016


    Deriv               =              1
    GGA                 =           TRUE
    Meta                =           TRUE

    Exchange Hybrid     =           TRUE
    MP2 Hybrid          =          FALSE

   => Exchange Functionals <=

    1.0000   XC_HYB_MGGA_X_MN15

   => Exact (HF) Exchange <=

    0.4400               HF 

   => Correlation Functionals <=

    1.0000   XC_MGGA_C_MN15

   => Molecular Quadrature <=

    Radial Scheme          =       TREUTLER
    Pruning Scheme         =           FLAT
    Nuclear Scheme         =       TREUTLER

    BS radius alpha        =              1
    Pruning alpha          =              1
    Radial Points          =             75
    Spherical Points       =            302
    Total Points           =          67950
    Total Blocks           =            592
    Max Points             =            256
    Max Functions          =            191

   => MN15-D3(BJ): Empirical Dispersion <=

    Grimme's -D3 (BJ-damping) Dispersion Correction
    Grimme S.; Ehrlich S.; Goerigk L. (2011), J. Comput. Chem., 32: 1456
    Parametrisation from:    L. Goerigk, A. Hansen, C. Bauer, S. Ehrlich, A. Najibi, S. Grimme, Phys. Chem. Chem. Phys. 19, 32184-32215, 2017

        s6 =       1.000000
        s8 =       2.097100
        a1 =       0.786200
        a2 =       7.592300

   => Loading Basis Set <=

    Name: (DEF2-TZVPPD AUX)
    Role: JKFIT
    Keyword: DF_BASIS_SCF
    atoms 1-3 entry CU         line  2361 file /work/zw18965/.conda/envs/p4env/share/psi4/basis/def2-tzvpp-jkfit.gbs 

   => Loading Basis Set <=

    Name: DEF2-TZVPPD
    Role: ORBITAL
    Keyword: BASIS
    atoms 1-3 entry CU         line  1290 file /work/zw18965/.conda/envs/p4env/share/psi4/basis/def2-tzvppd.gbs 

  Reading orbitals from file 180, no projection.

  ==> Pre-Iterations <==

   -------------------------------------------------------
    Irrep   Nso     Nmo     Nalpha   Nbeta   Ndocc  Nsocc
   -------------------------------------------------------
     A1        70      70       0       0       0       0
     A2        32      32       0       0       0       0
     B1        59      59       0       0       0       0
     B2        40      40       0       0       0       0
   -------------------------------------------------------
    Total     201     201      43      43      43       0
   -------------------------------------------------------

  ==> Integral Setup <==

  DFHelper Memory: AOs need 0.244 GiB; user supplied 99.941 GiB. Using in-core AOs.

  ==> MemDFJK: Density-Fitted J/K Matrices <==

    J tasked:                   Yes
    K tasked:                   Yes
    wK tasked:                   No
    OpenMP threads:              24
    Memory [MiB]:            102339
    Algorithm:                 Core
    Schwarz Cutoff:           1E-12
    Mask sparsity (%):       7.3662
    Fitting Condition:        1E-10

   => Auxiliary Basis Set <=

  Basis Set: (DEF2-TZVPPD AUX)
    Blend: DEF2-TZVPP-JKFIT
    Number of shells: 174
    Number of basis function: 792
    Number of Cartesian functions: 1131
    Spherical Harmonics?: true
    Max angular momentum: 6

  Cached 100.0% of DFT collocation blocks in 0.642 [GiB].

  Minimum eigenvalue in the overlap matrix is 7.9014227995E-04.
  Using Symmetric Orthogonalization.

  SCF Guess: Orbitals guess was supplied from a previous computation.

  ==> Iterations <==

                           Total Energy        Delta E     RMS |[F,P]|

   @DF-RKS iter   0: -4922.17429472780350   -4.92217e+03   8.98602e-04 
   @DF-RKS iter   1: -4922.15553606355115    1.87587e-02   4.56800e-05 DIIS
   @DF-RKS iter   2: -4922.15552212902639    1.39345e-05   1.09424e-04 DIIS
   @DF-RKS iter   3: -4922.15554005830563   -1.79293e-05   4.47812e-06 DIIS
   @DF-RKS iter   4: -4922.15554012825214   -6.99465e-08   1.06506e-06 DIIS
   @DF-RKS iter   5: -4922.15554013734163   -9.08949e-09   4.96444e-07 DIIS
   @DF-RKS iter   6: -4922.15554013885503   -1.51340e-09   1.38582e-07 DIIS
   @DF-RKS iter   7: -4922.15554013910878   -2.53749e-10   9.74222e-08 DIIS
   @DF-RKS iter   8: -4922.15554013913516   -2.63753e-11   3.98542e-08 DIIS
   @DF-RKS iter   9: -4922.15554013914971   -1.45519e-11   6.83251e-09 DIIS
  Energy and wave function converged.


  ==> Post-Iterations <==

    Orbital Energies [Eh]
    ---------------------

    Doubly Occupied:                                                      

       1B1  -320.903264     1A1  -320.903263     2A1  -320.903247  
       2B1   -38.071626     3A1   -38.071624     4A1   -38.071381  
       3B1   -33.923632     5A1   -33.923631     6A1   -33.923615  
       4B1   -33.922190     7A1   -33.922169     5B1   -33.922167  
       1A2   -33.919967     1B2   -33.919965     2B2   -33.919955  
       8A1    -4.292695     6B1    -4.292085     9A1    -4.292083  
      10A1    -2.966052    11A1    -2.964973     7B1    -2.964972  
       8B1    -2.962803     9B1    -2.961475    12A1    -2.961471  
       3B2    -2.960780     2A2    -2.960350     4B2    -2.960348  
      13A1    -0.571419    14A1    -0.555710    10B1    -0.555704  
       5B2    -0.554969    15A1    -0.544182     3A2    -0.540495  
       6B2    -0.540494    11B1    -0.522706    16A1    -0.522703  
       4A2    -0.519865    17A1    -0.516463    12B1    -0.516457  
       5A2    -0.516308     7B2    -0.516297    13B1    -0.500274  
      18A1    -0.469551  

    Virtual:                                                              

      19A1    -0.246171    14B1    -0.246167     8B2    -0.192881  
      20A1    -0.134904    15B1    -0.123268    21A1    -0.123265  
       9B2    -0.074048     6A2    -0.074041    22A1    -0.034877  
      16B1    -0.034876    17B1    -0.003185    23A1    -0.000236  
      10B2     0.007181    24A1     0.008288    25A1     0.026632  
      18B1     0.026632    11B2     0.051754     7A2     0.051759  
      26A1     0.069545     8A2     0.095742    12B2     0.095751  
      19B1     0.097565    27A1     0.102027    20B1     0.102028  
      28A1     0.113618    21B1     0.113622    13B2     0.124731  
      29A1     0.184889    22B1     0.184892     9A2     0.210381  
      30A1     0.217107    23B1     0.237720    31A1     0.237723  
      14B2     0.240605    10A2     0.240610    24B1     0.333005  
      32A1     0.355431    25B1     0.355433    15B2     0.493884  
      33A1     0.496839    34A1     0.549009    26B1     0.549039  
      11A2     0.603303    16B2     0.603309    35A1     0.638150  
      36A1     0.660857    27B1     0.660861    17B2     0.666892  
      18B2     0.695837    12A2     0.695848    37A1     0.779181  
      28B1     0.791174    38A1     0.792758    29B1     0.792769  
      13A2     0.870821    39A1     0.881966    30B1     0.881972  
      19B2     0.923084    14A2     0.923137    40A1     1.082515  
      31B1     1.082518    32B1     1.110135    20B2     2.749745  
      33B1     2.816880    41A1     2.816943    21B2     2.854322  
      15A2     2.854405    42A1     2.860869    43A1     2.875428  
      34B1     2.875451    44A1     2.883713    35B1     2.987659  
      45A1     3.156722    22B2     3.183403    16A2     3.186301  
      23B2     3.186302    36B1     3.204840    46A1     3.204875  
      37B1     3.206790    47A1     3.206798    24B2     3.209650  
      38B1     3.211034    48A1     3.211046    25B2     3.211107  
      17A2     3.211170    18A2     3.212977    39B1     3.213471  
      26B2     3.213926    19A2     3.213959    49A1     3.249578  
      40B1     3.250813    50A1     3.250822    41B1     3.276828  
      51A1     3.334440    42B1     3.334481    20A2     3.428351  
      52A1     3.428405    27B2     3.428460    28B2     3.456571  
      43B1     3.483942    53A1     3.483944    21A2     3.505795  
      22A2     3.554104    29B2     3.554111    54A1     3.680045  
      44B1     3.680067    55A1     3.682556    45B1     3.749366  
      46B1     3.976548    56A1     3.976568    57A1    12.498968  
      47B1    12.499425    48B1    12.499570    58A1    12.499577  
      59A1    12.500422    49B1    12.500446    30B2    12.500869  
      23A2    12.500930    31B2    12.500984    24A2    12.501172  
      32B2    12.501423    25A2    12.501470    60A1    12.502221  
      50B1    12.502329    51B1    12.502846    61A1    12.502900  
      26A2    12.502962    33B2    12.502979    34B2    12.503079  
      62A1    12.503211    52B1    12.503264    27A2    12.503433  
      28A2    12.503453    35B2    12.503466    63A1    12.503528  
      53B1    12.503900    64A1    12.503963    29A2    12.660847  
      36B2    12.660858    65A1    12.660948    66A1    12.661146  
      54B1    12.661169    37B2    12.661405    38B2    12.662429  
      30A2    12.662442    55B1    12.662982    56B1    12.664373  
      67A1    12.664377    39B2    12.666112    31A2    12.669241  
      57B1    12.673983    68A1    12.674003    69A1    12.674556  
      32A2    12.677449    40B2    12.677511    58B1    12.743754  
      70A1    12.747618    59B1    12.747660  

    Final Occupation by Irrep:
             A1    A2    B1    B2 
    DOCC [    18,    5,   13,    7 ]

  @DF-RKS Final Energy: -4922.15554013914971

   => Energetics <=

    Nuclear Repulsion Energy =            566.3210170280731290
    One-Electron Energy =               -7976.2742425610167629
    Two-Electron Energy =                2603.5120314597124889
    DFT Exchange-Correlation Energy =    -115.7142530859185996
    Empirical Dispersion Energy =          -0.0000929800000000
    VV10 Nonlocal Energy =                  0.0000000000000000
    Total Energy =                      -4922.1555401391487976

Computation Completed


Properties will be evaluated at   0.000000,   0.000000,   0.000000 [a0]

Properties computed using the SCF density matrix

  Nuclear Dipole Moment: [e a0]
     X:     0.0000      Y:     0.0000      Z:     0.0000

  Electronic Dipole Moment: [e a0]
     X:     0.0000      Y:     0.0000      Z:    -0.0000

  Dipole Moment: [e a0]
     X:     0.0000      Y:     0.0000      Z:    -0.0000     Total:     0.0000

  Dipole Moment: [D]
     X:     0.0000      Y:     0.0000      Z:    -0.0001     Total:     0.0001


*** tstop() called on bp1-compute00133.data.bp.acrc.priv at Fri Oct 29 08:41:10 2021
Module time:
	user time   =      42.71 seconds =       0.71 minutes
	system time =       2.74 seconds =       0.05 minutes
	total time  =          2 seconds =       0.03 minutes
Total time:
	user time   =     157.20 seconds =       2.62 minutes
	system time =       9.23 seconds =       0.15 minutes
	total time  =         11 seconds =       0.18 minutes

*** tstart() called on bp1-compute00133.data.bp.acrc.priv
*** at Fri Oct 29 08:41:10 2021


         ------------------------------------------------------------
                                   SCF GRAD                          
                          Rob Parrish, Justin Turney,                
                       Andy Simmonett, and Alex Sokolov              
         ------------------------------------------------------------

  ==> Geometry <==

    Molecular point group: c2v
    Full point group: C2v

    Geometry (in Angstrom), charge = 1, multiplicity = 1:

       Center              X                  Y                   Z               Mass       
    ------------   -----------------  -----------------  -----------------  -----------------
         CU           0.000000000000    -0.000000000000     1.361140290826    62.929597720000
         CU           1.178739657962     0.000000000000    -0.680570145413    62.929597720000
         CU          -1.178739657962    -0.000000000000    -0.680570145413    62.929597720000

  Nuclear repulsion =  566.321017028073129

  ==> Basis Set <==

  Basis Set: DEF2-TZVPPD
    Blend: DEF2-TZVPPD
    Number of shells: 57
    Number of basis function: 201
    Number of Cartesian functions: 249
    Spherical Harmonics?: true
    Max angular momentum: 4

  ==> DFJKGrad: Density-Fitted SCF Gradients <==

    Gradient:                    1
    J tasked:                  Yes
    K tasked:                  Yes
    wK tasked:                  No
    OpenMP threads:             24
    Integrals threads:          24
    Memory [MiB]:           102996
    Schwarz Cutoff:          0E+00
    Fitting Condition:       1E-10

   => Auxiliary Basis Set <=

  Basis Set: (DEF2-TZVPPD AUX)
    Blend: DEF2-TZVPP-JKFIT
    Number of shells: 174
    Number of basis function: 792
    Number of Cartesian functions: 1131
    Spherical Harmonics?: true
    Max angular momentum: 6

  ==> DFT Potential <==

   => Composite Functional: MN15-D3BJ <= 

   MN15 Hybrid Meta-GGA Exchange-Correlation Functional

    H. S. Yu, X. He, S. L. Li, and D. G. Truhlar, Chem. Sci. 7, 5032-5051, 2016


    Deriv               =              1
    GGA                 =           TRUE
    Meta                =           TRUE

    Exchange Hybrid     =           TRUE
    MP2 Hybrid          =          FALSE

   => Exchange Functionals <=

    1.0000   XC_HYB_MGGA_X_MN15

   => Exact (HF) Exchange <=

    0.4400               HF 

   => Correlation Functionals <=

    1.0000   XC_MGGA_C_MN15

   => Molecular Quadrature <=

    Radial Scheme          =       TREUTLER
    Pruning Scheme         =           FLAT
    Nuclear Scheme         =       TREUTLER

    BS radius alpha        =              1
    Pruning alpha          =              1
    Radial Points          =             75
    Spherical Points       =            302
    Total Points           =          67950
    Total Blocks           =            592
    Max Points             =            256
    Max Functions          =            191


  -Total Gradient:
     Atom            X                  Y                   Z
    ------   -----------------  -----------------  -----------------
       1        0.000000000000    -0.000000000000    -0.005213322276
       2       -0.004518022240    -0.000000000000     0.002626283064
       3        0.004518022240     0.000000000000     0.002626283064


*** tstop() called on bp1-compute00133.data.bp.acrc.priv at Fri Oct 29 08:41:16 2021
Module time:
	user time   =      52.59 seconds =       0.88 minutes
	system time =       3.07 seconds =       0.05 minutes
	total time  =          6 seconds =       0.10 minutes
Total time:
	user time   =     211.04 seconds =       3.52 minutes
	system time =      12.39 seconds =       0.21 minutes
	total time  =         17 seconds =       0.28 minutes

			-----------------------------------------
			 OPTKING 2.0: for geometry optimizations 
			  - R.A. King,  Bethel University        
			-----------------------------------------
	At level 1: Red. Int., RFO, no backsteps, dynamic trust

	Previous internal coordinate definitions found.
	---Fragment 1 Geometry and Gradient---
	 CU          0.0000000000       -0.0000000000        2.5721823680
	 CU          2.2274951268        0.0000000000       -1.2860911840
	 CU         -2.2274951268       -0.0000000000       -1.2860911840
	             0.0000000000       -0.0000000000       -0.0052133223
	            -0.0045180222       -0.0000000000        0.0026262831
	             0.0045180222        0.0000000000        0.0026262831

	---Fragment 1 Intrafragment Coordinates---
	 - Coordinate -           - BOHR/RAD -       - ANG/DEG -
	 R(1,2)           =         4.455110	       2.357543
	 R(1,3)           =         4.455110	       2.357543
	 R(2,3)           =         4.454990	       2.357479
	 B(1,2,3)         =         1.047213	      60.000893
	 B(1,3,2)         =         1.047213	      60.000893
	 B(2,1,3)         =         1.047166	      59.998215

	Current energy   :     -4922.1555401391

	Energy change for the previous step:
		Projected    :        -0.0006054052
		Actual       :        -0.0004793154
	Energy ratio indicates good step: Trust radius increased to 1.000e+00.


	Performing BFGS update.
	Previous computed or guess Hessian on step 1.
	Steps to be used in Hessian update: 1
	Taking RFO optimization step.
	Going to follow RFO solution 1.
	Using RFO vector 1.
	Norm of target step-size    0.09113
	Projected energy change by RFO approximation:        -0.0004725781

	Back-transformation to cartesian coordinates...
	Successfully converged to displaced geometry.

	--- Internal Coordinate Step in ANG or DEG, aJ/ANG or AJ/DEG ---
	 ---------------------------------------------------------------------------
	   Coordinate                Previous        Force       Change         New 
	   ----------                --------       ------       ------       ------
	    1 R(1,2)          =      2.357543     0.024857     0.027862     2.385405
	    2 R(1,3)          =      2.357543     0.024857     0.027862     2.385405
	    3 R(2,3)          =      2.357479     0.024799     0.027804     2.385283
	    4 B(1,2,3)        =     60.000893     0.000000     0.000799    60.001691
	    5 B(1,3,2)        =     60.000893     0.000000     0.000799    60.001691
	    6 B(2,1,3)        =     59.998215    -0.000000    -0.001597    59.996618
	 ---------------------------------------------------------------------------
	Successfully symmetrized geometry.

  ==> Convergence Check <==

  Measures of convergence in internal coordinates in au.
  Criteria marked as inactive (o), active & met (*), and active & unmet ( ).
  ---------------------------------------------------------------------------------------------
   Step     Total Energy     Delta E     MAX Force     RMS Force      MAX Disp      RMS Disp   
  ---------------------------------------------------------------------------------------------
    Convergence Criteria    1.00e-06 *    3.00e-04 *             o    1.20e-03 *             o
  ---------------------------------------------------------------------------------------------
      2   -4922.15554014   -4.79e-04      3.02e-03      2.13e-03 o    5.27e-02      3.72e-02 o  ~
  ---------------------------------------------------------------------------------------------

	Writing optimization data to binary file.
	Structure for next step:
	Cartesian Geometry (in Angstrom)
	   CU     0.0000000000   0.0000000000   1.3772376733
	   CU     1.1926415096   0.0000000000  -0.6886188366
	   CU    -1.1926415096  -0.0000000000  -0.6886188366
			--------------------------
			 OPTKING Finished Execution 
			--------------------------

    Structure for next step:
    Molecular point group: c2v
    Full point group: C2v

    Geometry (in Angstrom), charge = 1, multiplicity = 1:

    CU           0.000000000000    -0.000000000000     1.377237678679
    CU           1.192641514245     0.000000000000    -0.688618839339
    CU          -1.192641514245    -0.000000000000    -0.688618839339

gradient() will perform analytic gradient computation.

*** tstart() called on bp1-compute00133.data.bp.acrc.priv
*** at Fri Oct 29 08:41:16 2021

   => Loading Basis Set <=

    Name: DEF2-TZVPPD
    Role: ORBITAL
    Keyword: BASIS
    atoms 1-3 entry CU         line  1290 file /work/zw18965/.conda/envs/p4env/share/psi4/basis/def2-tzvppd.gbs 


         ---------------------------------------------------------
                                   SCF
               by Justin Turney, Rob Parrish, Andy Simmonett
                          and Daniel G. A. Smith
                              RKS Reference
                       24 Threads, 137329 MiB Core
         ---------------------------------------------------------

  ==> Geometry <==

    Molecular point group: c2v
    Full point group: C2v

    Geometry (in Angstrom), charge = 1, multiplicity = 1:

       Center              X                  Y                   Z               Mass       
    ------------   -----------------  -----------------  -----------------  -----------------
         CU           0.000000000000    -0.000000000000     1.377237678679    62.929597720000
         CU           1.192641514245     0.000000000000    -0.688618839339    62.929597720000
         CU          -1.192641514245    -0.000000000000    -0.688618839339    62.929597720000

  Running in c2v symmetry.

  Rotational constants: A =      0.09417  B =      0.09415  C =      0.04708 [cm^-1]
  Rotational constants: A =   2823.00991  B =   2822.62506  C =   1411.40874 [MHz]
  Nuclear repulsion =  559.710768514641018

  Charge       = 1
  Multiplicity = 1
  Electrons    = 86
  Nalpha       = 43
  Nbeta        = 43

  ==> Algorithm <==

  SCF Algorithm Type is DF.
  DIIS enabled.
  MOM disabled.
  Fractional occupation disabled.
  Guess Type is READ.
  Energy threshold   = 1.00e-08
  Density threshold  = 1.00e-08
  Integral threshold = 0.00e+00

  ==> Primary Basis <==

  Basis Set: DEF2-TZVPPD
    Blend: DEF2-TZVPPD
    Number of shells: 57
    Number of basis function: 201
    Number of Cartesian functions: 249
    Spherical Harmonics?: true
    Max angular momentum: 4

  ==> DFT Potential <==

   => Composite Functional: MN15-D3BJ <= 

   MN15 Hybrid Meta-GGA Exchange-Correlation Functional

    H. S. Yu, X. He, S. L. Li, and D. G. Truhlar, Chem. Sci. 7, 5032-5051, 2016


    Deriv               =              1
    GGA                 =           TRUE
    Meta                =           TRUE

    Exchange Hybrid     =           TRUE
    MP2 Hybrid          =          FALSE

   => Exchange Functionals <=

    1.0000   XC_HYB_MGGA_X_MN15

   => Exact (HF) Exchange <=

    0.4400               HF 

   => Correlation Functionals <=

    1.0000   XC_MGGA_C_MN15

   => Molecular Quadrature <=

    Radial Scheme          =       TREUTLER
    Pruning Scheme         =           FLAT
    Nuclear Scheme         =       TREUTLER

    BS radius alpha        =              1
    Pruning alpha          =              1
    Radial Points          =             75
    Spherical Points       =            302
    Total Points           =          67950
    Total Blocks           =            590
    Max Points             =            256
    Max Functions          =            191

   => MN15-D3(BJ): Empirical Dispersion <=

    Grimme's -D3 (BJ-damping) Dispersion Correction
    Grimme S.; Ehrlich S.; Goerigk L. (2011), J. Comput. Chem., 32: 1456
    Parametrisation from:    L. Goerigk, A. Hansen, C. Bauer, S. Ehrlich, A. Najibi, S. Grimme, Phys. Chem. Chem. Phys. 19, 32184-32215, 2017

        s6 =       1.000000
        s8 =       2.097100
        a1 =       0.786200
        a2 =       7.592300

   => Loading Basis Set <=

    Name: (DEF2-TZVPPD AUX)
    Role: JKFIT
    Keyword: DF_BASIS_SCF
    atoms 1-3 entry CU         line  2361 file /work/zw18965/.conda/envs/p4env/share/psi4/basis/def2-tzvpp-jkfit.gbs 

   => Loading Basis Set <=

    Name: DEF2-TZVPPD
    Role: ORBITAL
    Keyword: BASIS
    atoms 1-3 entry CU         line  1290 file /work/zw18965/.conda/envs/p4env/share/psi4/basis/def2-tzvppd.gbs 

  Reading orbitals from file 180, no projection.

  ==> Pre-Iterations <==

   -------------------------------------------------------
    Irrep   Nso     Nmo     Nalpha   Nbeta   Ndocc  Nsocc
   -------------------------------------------------------
     A1        70      70       0       0       0       0
     A2        32      32       0       0       0       0
     B1        59      59       0       0       0       0
     B2        40      40       0       0       0       0
   -------------------------------------------------------
    Total     201     201      43      43      43       0
   -------------------------------------------------------

  ==> Integral Setup <==

  DFHelper Memory: AOs need 0.244 GiB; user supplied 99.941 GiB. Using in-core AOs.

  ==> MemDFJK: Density-Fitted J/K Matrices <==

    J tasked:                   Yes
    K tasked:                   Yes
    wK tasked:                   No
    OpenMP threads:              24
    Memory [MiB]:            102339
    Algorithm:                 Core
    Schwarz Cutoff:           1E-12
    Mask sparsity (%):       7.5345
    Fitting Condition:        1E-10

   => Auxiliary Basis Set <=

  Basis Set: (DEF2-TZVPPD AUX)
    Blend: DEF2-TZVPP-JKFIT
    Number of shells: 174
    Number of basis function: 792
    Number of Cartesian functions: 1131
    Spherical Harmonics?: true
    Max angular momentum: 6

  Cached 100.0% of DFT collocation blocks in 0.642 [GiB].

  Minimum eigenvalue in the overlap matrix is 8.2155848428E-04.
  Using Symmetric Orthogonalization.

  SCF Guess: Orbitals guess was supplied from a previous computation.

  ==> Iterations <==

                           Total Energy        Delta E     RMS |[F,P]|

   @DF-RKS iter   0: -4922.17961094754628   -4.92218e+03   1.17211e-03 
   @DF-RKS iter   1: -4922.15579530569539    2.38156e-02   5.25055e-05 DIIS
   @DF-RKS iter   2: -4922.15577941962147    1.58861e-05   1.21138e-04 DIIS
   @DF-RKS iter   3: -4922.15580129144200   -2.18718e-05   8.14121e-06 DIIS
   @DF-RKS iter   4: -4922.15580148962636   -1.98184e-07   1.18817e-06 DIIS
   @DF-RKS iter   5: -4922.15580150810456   -1.84782e-08   7.44836e-07 DIIS
   @DF-RKS iter   6: -4922.15580151111772   -3.01316e-09   2.00292e-07 DIIS
   @DF-RKS iter   7: -4922.15580151166432   -5.46606e-10   5.25050e-08 DIIS
   @DF-RKS iter   8: -4922.15580151169797   -3.36513e-11   7.75480e-08 DIIS
   @DF-RKS iter   9: -4922.15580151170798   -1.00044e-11   1.12793e-08 DIIS
   @DF-RKS iter  10: -4922.15580151171253   -4.54747e-12   1.77431e-09 DIIS
  Energy and wave function converged.


  ==> Post-Iterations <==

    Orbital Energies [Eh]
    ---------------------

    Doubly Occupied:                                                      

       1B1  -320.901856     1A1  -320.901855     2A1  -320.901839  
       2B1   -38.069979     3A1   -38.069977     4A1   -38.069735  
       3B1   -33.921992     5A1   -33.921991     6A1   -33.921974  
       4B1   -33.920595     7A1   -33.920575     5B1   -33.920572  
       1A2   -33.918421     1B2   -33.918419     2B2   -33.918409  
       8A1    -4.291047     6B1    -4.290529     9A1    -4.290527  
      10A1    -2.964053    11A1    -2.963279     7B1    -2.963277  
       8B1    -2.961377     9B1    -2.960009    12A1    -2.960004  
       3B2    -2.959334     2A2    -2.958958     4B2    -2.958955  
      13A1    -0.567598    14A1    -0.552906    10B1    -0.552898  
       5B2    -0.552042    15A1    -0.542024     3A2    -0.538530  
       6B2    -0.538530    11B1    -0.521709    16A1    -0.521709  
       4A2    -0.519085    17A1    -0.515637    12B1    -0.515628  
       5A2    -0.515571     7B2    -0.515560    13B1    -0.500154  
      18A1    -0.467351  

    Virtual:                                                              

      19A1    -0.246054    14B1    -0.246048     8B2    -0.191709  
      20A1    -0.134990    15B1    -0.123780    21A1    -0.123779  
       9B2    -0.074555     6A2    -0.074546    22A1    -0.034762  
      16B1    -0.034761    17B1    -0.003939    23A1    -0.000091  
      10B2     0.007708    24A1     0.008667    25A1     0.026865  
      18B1     0.026866    11B2     0.051853     7A2     0.051859  
      26A1     0.068736     8A2     0.094994    12B2     0.095004  
      19B1     0.096459    27A1     0.101570    20B1     0.101574  
      28A1     0.112454    21B1     0.112462    13B2     0.123862  
      29A1     0.183660    22B1     0.183665     9A2     0.209387  
      30A1     0.217922    23B1     0.237279    31A1     0.237280  
      14B2     0.239867    10A2     0.239874    24B1     0.331446  
      32A1     0.351022    25B1     0.351032    33A1     0.496799  
      15B2     0.499356    34A1     0.548391    26B1     0.548422  
      11A2     0.602302    16B2     0.602302    35A1     0.640493  
      36A1     0.659784    27B1     0.659788    17B2     0.665592  
      18B2     0.697677    12A2     0.697698    37A1     0.778838  
      28B1     0.786167    38A1     0.788831    29B1     0.788838  
      13A2     0.868055    39A1     0.877896    30B1     0.877910  
      19B2     0.919540    14A2     0.919603    40A1     1.074145  
      31B1     1.074160    32B1     1.105068    20B2     2.750746  
      33B1     2.810374    41A1     2.810441    42A1     2.845193  
      21B2     2.854481    15A2     2.854569    43A1     2.878142  
      44A1     2.890935    34B1     2.890937    35B1     2.993778  
      45A1     3.161420    22B2     3.185685    23B2     3.189415  
      16A2     3.189422    36B1     3.206206    46A1     3.206233  
      37B1     3.208362    47A1     3.208370    24B2     3.211172  
      25B2     3.212341    17A2     3.212404    38B1     3.213045  
      48A1     3.213058    18A2     3.213774    39B1     3.214201  
      26B2     3.214836    19A2     3.214874    40B1     3.246068  
      49A1     3.246079    50A1     3.250981    41B1     3.264633  
      51A1     3.327410    42B1     3.327457    52A1     3.425427  
      20A2     3.426164    27B2     3.426267    28B2     3.449094  
      53A1     3.482711    43B1     3.482712    21A2     3.504798  
      22A2     3.552127    29B2     3.552130    54A1     3.658148  
      55A1     3.670405    44B1     3.670408    45B1     3.745586  
      46B1     3.954386    56A1     3.954390    57A1    12.500587  
      47B1    12.501058    48B1    12.501112    58A1    12.501119  
      59A1    12.501932    49B1    12.501958    30B2    12.502369  
      23A2    12.502452    31B2    12.502495    24A2    12.502686  
      32B2    12.502909    25A2    12.502943    60A1    12.503688  
      50B1    12.503789    51B1    12.504257    61A1    12.504345  
      26A2    12.504369    33B2    12.504391    34B2    12.504513  
      62A1    12.504590    52B1    12.504633    27A2    12.504776  
      28A2    12.504786    35B2    12.504807    63A1    12.504894  
      53B1    12.505254    64A1    12.505314    29A2    12.662854  
      36B2    12.662855    37B2    12.663034    65A1    12.663062  
      54B1    12.663091    66A1    12.663201    38B2    12.663894  
      30A2    12.663897    55B1    12.664311    67A1    12.667036  
      56B1    12.667054    39B2    12.667712    31A2    12.669606  
      57B1    12.673772    68A1    12.673800    69A1    12.676378  
      32A2    12.677058    40B2    12.677110    58B1    12.736007  
      70A1    12.739290    59B1    12.739341  

    Final Occupation by Irrep:
             A1    A2    B1    B2 
    DOCC [    18,    5,   13,    7 ]

  @DF-RKS Final Energy: -4922.15580151171253

   => Energetics <=

    Nuclear Repulsion Energy =            559.7107685146410176
    One-Electron Energy =               -7963.1957316996422378
    Two-Electron Energy =                2597.0397345628821313
    DFT Exchange-Correlation Energy =    -115.7104799095942269
    Empirical Dispersion Energy =          -0.0000929800000000
    VV10 Nonlocal Energy =                  0.0000000000000000
    Total Energy =                      -4922.1558015117125251

Computation Completed


Properties will be evaluated at   0.000000,   0.000000,   0.000000 [a0]

Properties computed using the SCF density matrix

  Nuclear Dipole Moment: [e a0]
     X:     0.0000      Y:     0.0000      Z:    -0.0000

  Electronic Dipole Moment: [e a0]
     X:     0.0000      Y:     0.0000      Z:     0.0000

  Dipole Moment: [e a0]
     X:     0.0000      Y:     0.0000      Z:     0.0000     Total:     0.0000

  Dipole Moment: [D]
     X:     0.0000      Y:     0.0000      Z:     0.0000     Total:     0.0000


*** tstop() called on bp1-compute00133.data.bp.acrc.priv at Fri Oct 29 08:41:18 2021
Module time:
	user time   =      43.30 seconds =       0.72 minutes
	system time =       2.11 seconds =       0.04 minutes
	total time  =          2 seconds =       0.03 minutes
Total time:
	user time   =     255.50 seconds =       4.26 minutes
	system time =      14.56 seconds =       0.24 minutes
	total time  =         19 seconds =       0.32 minutes

*** tstart() called on bp1-compute00133.data.bp.acrc.priv
*** at Fri Oct 29 08:41:18 2021


         ------------------------------------------------------------
                                   SCF GRAD                          
                          Rob Parrish, Justin Turney,                
                       Andy Simmonett, and Alex Sokolov              
         ------------------------------------------------------------

  ==> Geometry <==

    Molecular point group: c2v
    Full point group: C2v

    Geometry (in Angstrom), charge = 1, multiplicity = 1:

       Center              X                  Y                   Z               Mass       
    ------------   -----------------  -----------------  -----------------  -----------------
         CU           0.000000000000    -0.000000000000     1.377237678679    62.929597720000
         CU           1.192641514245     0.000000000000    -0.688618839339    62.929597720000
         CU          -1.192641514245    -0.000000000000    -0.688618839339    62.929597720000

  Nuclear repulsion =  559.710768514641018

  ==> Basis Set <==

  Basis Set: DEF2-TZVPPD
    Blend: DEF2-TZVPPD
    Number of shells: 57
    Number of basis function: 201
    Number of Cartesian functions: 249
    Spherical Harmonics?: true
    Max angular momentum: 4

  ==> DFJKGrad: Density-Fitted SCF Gradients <==

    Gradient:                    1
    J tasked:                  Yes
    K tasked:                  Yes
    wK tasked:                  No
    OpenMP threads:             24
    Integrals threads:          24
    Memory [MiB]:           102996
    Schwarz Cutoff:          0E+00
    Fitting Condition:       1E-10

   => Auxiliary Basis Set <=

  Basis Set: (DEF2-TZVPPD AUX)
    Blend: DEF2-TZVPP-JKFIT
    Number of shells: 174
    Number of basis function: 792
    Number of Cartesian functions: 1131
    Spherical Harmonics?: true
    Max angular momentum: 6

  ==> DFT Potential <==

   => Composite Functional: MN15-D3BJ <= 

   MN15 Hybrid Meta-GGA Exchange-Correlation Functional

    H. S. Yu, X. He, S. L. Li, and D. G. Truhlar, Chem. Sci. 7, 5032-5051, 2016


    Deriv               =              1
    GGA                 =           TRUE
    Meta                =           TRUE

    Exchange Hybrid     =           TRUE
    MP2 Hybrid          =          FALSE

   => Exchange Functionals <=

    1.0000   XC_HYB_MGGA_X_MN15

   => Exact (HF) Exchange <=

    0.4400               HF 

   => Correlation Functionals <=

    1.0000   XC_MGGA_C_MN15

   => Molecular Quadrature <=

    Radial Scheme          =       TREUTLER
    Pruning Scheme         =           FLAT
    Nuclear Scheme         =       TREUTLER

    BS radius alpha        =              1
    Pruning alpha          =              1
    Radial Points          =             75
    Spherical Points       =            302
    Total Points           =          67950
    Total Blocks           =            590
    Max Points             =            256
    Max Functions          =            191


  -Total Gradient:
     Atom            X                  Y                   Z
    ------   -----------------  -----------------  -----------------
       1        0.000000000000    -0.000000000000    -0.000553868517
       2       -0.000479331565    -0.000000000000     0.000299588259
       3        0.000479331565     0.000000000000     0.000299588259


*** tstop() called on bp1-compute00133.data.bp.acrc.priv at Fri Oct 29 08:41:24 2021
Module time:
	user time   =      51.95 seconds =       0.87 minutes
	system time =       2.84 seconds =       0.05 minutes
	total time  =          6 seconds =       0.10 minutes
Total time:
	user time   =     308.71 seconds =       5.15 minutes
	system time =      17.49 seconds =       0.29 minutes
	total time  =         25 seconds =       0.42 minutes

			-----------------------------------------
			 OPTKING 2.0: for geometry optimizations 
			  - R.A. King,  Bethel University        
			-----------------------------------------
	At level 1: Red. Int., RFO, no backsteps, dynamic trust

	Previous internal coordinate definitions found.
	---Fragment 1 Geometry and Gradient---
	 CU          0.0000000000       -0.0000000000        2.6026020224
	 CU          2.2537658278        0.0000000000       -1.3013010112
	 CU         -2.2537658278       -0.0000000000       -1.3013010112
	             0.0000000000       -0.0000000000       -0.0005538685
	            -0.0004793316       -0.0000000000        0.0002995883
	             0.0004793316        0.0000000000        0.0002995883

	---Fragment 1 Intrafragment Coordinates---
	 - Coordinate -           - BOHR/RAD -       - ANG/DEG -
	 R(1,2)           =         4.507762	       2.385405
	 R(1,3)           =         4.507762	       2.385405
	 R(2,3)           =         4.507532	       2.385283
	 B(1,2,3)         =         1.047227	      60.001691
	 B(1,3,2)         =         1.047227	      60.001691
	 B(2,1,3)         =         1.047139	      59.996618

	Current energy   :     -4922.1558015117

	Energy change for the previous step:
		Projected    :        -0.0004725781
		Actual       :        -0.0002613726

	Performing BFGS update.
	Previous computed or guess Hessian on step 1.
	Steps to be used in Hessian update: 2 1
	Taking RFO optimization step.
	Going to follow RFO solution 1.
	Using RFO vector 1.
	Norm of target step-size    0.01048
	Projected energy change by RFO approximation:        -0.0000059412

	Back-transformation to cartesian coordinates...
	Successfully converged to displaced geometry.

	--- Internal Coordinate Step in ANG or DEG, aJ/ANG or AJ/DEG ---
	 ---------------------------------------------------------------------------
	   Coordinate                Previous        Force       Change         New 
	   ----------                --------       ------       ------       ------
	    1 R(1,2)          =      2.385405     0.002702     0.003218     2.388623
	    2 R(1,3)          =      2.385405     0.002702     0.003218     2.388623
	    3 R(2,3)          =      2.385283     0.002605     0.003170     2.388453
	    4 B(1,2,3)        =     60.001691     0.000000     0.000662    60.002353
	    5 B(1,3,2)        =     60.001691     0.000000     0.000662    60.002353
	    6 B(2,1,3)        =     59.996618    -0.000000    -0.001323    59.995294
	 ---------------------------------------------------------------------------
	Successfully symmetrized geometry.

  ==> Convergence Check <==

  Measures of convergence in internal coordinates in au.
  Criteria marked as inactive (o), active & met (*), and active & unmet ( ).
  ---------------------------------------------------------------------------------------------
   Step     Total Energy     Delta E     MAX Force     RMS Force      MAX Disp      RMS Disp   
  ---------------------------------------------------------------------------------------------
    Convergence Criteria    1.00e-06 *    3.00e-04 *             o    1.20e-03 *             o
  ---------------------------------------------------------------------------------------------
      3   -4922.15580151   -2.61e-04      3.28e-04      2.29e-04 o    6.08e-03      4.28e-03 o  ~
  ---------------------------------------------------------------------------------------------

	Writing optimization data to binary file.
	Structure for next step:
	Cartesian Geometry (in Angstrom)
	   CU     0.0000000000  -0.0000000000   1.3791045678
	   CU     1.1942263223   0.0000000000  -0.6895522839
	   CU    -1.1942263223  -0.0000000000  -0.6895522839
			--------------------------
			 OPTKING Finished Execution 
			--------------------------

    Structure for next step:
    Molecular point group: c2v
    Full point group: C2v

    Geometry (in Angstrom), charge = 1, multiplicity = 1:

    CU           0.000000000000     0.000000000000     1.379104573266
    CU           1.194226326950     0.000000000000    -0.689552286633
    CU          -1.194226326950    -0.000000000000    -0.689552286633

gradient() will perform analytic gradient computation.

*** tstart() called on bp1-compute00133.data.bp.acrc.priv
*** at Fri Oct 29 08:41:24 2021

   => Loading Basis Set <=

    Name: DEF2-TZVPPD
    Role: ORBITAL
    Keyword: BASIS
    atoms 1-3 entry CU         line  1290 file /work/zw18965/.conda/envs/p4env/share/psi4/basis/def2-tzvppd.gbs 


         ---------------------------------------------------------
                                   SCF
               by Justin Turney, Rob Parrish, Andy Simmonett
                          and Daniel G. A. Smith
                              RKS Reference
                       24 Threads, 137329 MiB Core
         ---------------------------------------------------------

  ==> Geometry <==

    Molecular point group: c2v
    Full point group: C2v

    Geometry (in Angstrom), charge = 1, multiplicity = 1:

       Center              X                  Y                   Z               Mass       
    ------------   -----------------  -----------------  -----------------  -----------------
         CU           0.000000000000     0.000000000000     1.379104573266    62.929597720000
         CU           1.194226326950     0.000000000000    -0.689552286633    62.929597720000
         CU          -1.194226326950    -0.000000000000    -0.689552286633    62.929597720000

  Running in c2v symmetry.

  Rotational constants: A =      0.09392  B =      0.09390  C =      0.04695 [cm^-1]
  Rotational constants: A =   2815.52226  B =   2814.98826  C =   1407.62762 [MHz]
  Nuclear repulsion =  558.960542409355867

  Charge       = 1
  Multiplicity = 1
  Electrons    = 86
  Nalpha       = 43
  Nbeta        = 43

  ==> Algorithm <==

  SCF Algorithm Type is DF.
  DIIS enabled.
  MOM disabled.
  Fractional occupation disabled.
  Guess Type is READ.
  Energy threshold   = 1.00e-08
  Density threshold  = 1.00e-08
  Integral threshold = 0.00e+00

  ==> Primary Basis <==

  Basis Set: DEF2-TZVPPD
    Blend: DEF2-TZVPPD
    Number of shells: 57
    Number of basis function: 201
    Number of Cartesian functions: 249
    Spherical Harmonics?: true
    Max angular momentum: 4

  ==> DFT Potential <==

   => Composite Functional: MN15-D3BJ <= 

   MN15 Hybrid Meta-GGA Exchange-Correlation Functional

    H. S. Yu, X. He, S. L. Li, and D. G. Truhlar, Chem. Sci. 7, 5032-5051, 2016


    Deriv               =              1
    GGA                 =           TRUE
    Meta                =           TRUE

    Exchange Hybrid     =           TRUE
    MP2 Hybrid          =          FALSE

   => Exchange Functionals <=

    1.0000   XC_HYB_MGGA_X_MN15

   => Exact (HF) Exchange <=

    0.4400               HF 

   => Correlation Functionals <=

    1.0000   XC_MGGA_C_MN15

   => Molecular Quadrature <=

    Radial Scheme          =       TREUTLER
    Pruning Scheme         =           FLAT
    Nuclear Scheme         =       TREUTLER

    BS radius alpha        =              1
    Pruning alpha          =              1
    Radial Points          =             75
    Spherical Points       =            302
    Total Points           =          67950
    Total Blocks           =            590
    Max Points             =            256
    Max Functions          =            191

   => MN15-D3(BJ): Empirical Dispersion <=

    Grimme's -D3 (BJ-damping) Dispersion Correction
    Grimme S.; Ehrlich S.; Goerigk L. (2011), J. Comput. Chem., 32: 1456
    Parametrisation from:    L. Goerigk, A. Hansen, C. Bauer, S. Ehrlich, A. Najibi, S. Grimme, Phys. Chem. Chem. Phys. 19, 32184-32215, 2017

        s6 =       1.000000
        s8 =       2.097100
        a1 =       0.786200
        a2 =       7.592300

   => Loading Basis Set <=

    Name: (DEF2-TZVPPD AUX)
    Role: JKFIT
    Keyword: DF_BASIS_SCF
    atoms 1-3 entry CU         line  2361 file /work/zw18965/.conda/envs/p4env/share/psi4/basis/def2-tzvpp-jkfit.gbs 

   => Loading Basis Set <=

    Name: DEF2-TZVPPD
    Role: ORBITAL
    Keyword: BASIS
    atoms 1-3 entry CU         line  1290 file /work/zw18965/.conda/envs/p4env/share/psi4/basis/def2-tzvppd.gbs 

  Reading orbitals from file 180, no projection.

  ==> Pre-Iterations <==

   -------------------------------------------------------
    Irrep   Nso     Nmo     Nalpha   Nbeta   Ndocc  Nsocc
   -------------------------------------------------------
     A1        70      70       0       0       0       0
     A2        32      32       0       0       0       0
     B1        59      59       0       0       0       0
     B2        40      40       0       0       0       0
   -------------------------------------------------------
    Total     201     201      43      43      43       0
   -------------------------------------------------------

  ==> Integral Setup <==

  DFHelper Memory: AOs need 0.244 GiB; user supplied 99.942 GiB. Using in-core AOs.

  ==> MemDFJK: Density-Fitted J/K Matrices <==

    J tasked:                   Yes
    K tasked:                   Yes
    wK tasked:                   No
    OpenMP threads:              24
    Memory [MiB]:            102340
    Algorithm:                 Core
    Schwarz Cutoff:           1E-12
    Mask sparsity (%):       7.5543
    Fitting Condition:        1E-10

   => Auxiliary Basis Set <=

  Basis Set: (DEF2-TZVPPD AUX)
    Blend: DEF2-TZVPP-JKFIT
    Number of shells: 174
    Number of basis function: 792
    Number of Cartesian functions: 1131
    Spherical Harmonics?: true
    Max angular momentum: 6

  Cached 100.0% of DFT collocation blocks in 0.641 [GiB].

  Minimum eigenvalue in the overlap matrix is 8.2522110652E-04.
  Using Symmetric Orthogonalization.

  SCF Guess: Orbitals guess was supplied from a previous computation.

  ==> Iterations <==

                           Total Energy        Delta E     RMS |[F,P]|

   @DF-RKS iter   0: -4922.15828511161817   -4.92216e+03   1.30857e-04 
   @DF-RKS iter   1: -4922.15580490859884    2.48020e-03   5.10179e-06 DIIS
   @DF-RKS iter   2: -4922.15580479413256    1.14466e-07   1.10811e-05 DIIS
   @DF-RKS iter   3: -4922.15580497582232   -1.81690e-07   1.19234e-06 DIIS
   @DF-RKS iter   4: -4922.15580497955398   -3.73166e-09   1.37548e-07 DIIS
   @DF-RKS iter   5: -4922.15580497982592   -2.71939e-10   9.38990e-08 DIIS
   @DF-RKS iter   6: -4922.15580497987048   -4.45652e-11   2.71215e-08 DIIS
   @DF-RKS iter   7: -4922.15580497987321   -2.72848e-12   2.91537e-08 DIIS
   @DF-RKS iter   8: -4922.15580497987776   -4.54747e-12   5.26108e-09 DIIS
  Energy and wave function converged.


  ==> Post-Iterations <==

    Orbital Energies [Eh]
    ---------------------

    Doubly Occupied:                                                      

       1B1  -320.901697     1A1  -320.901696     2A1  -320.901680  
       2B1   -38.069793     3A1   -38.069791     4A1   -38.069549  
       3B1   -33.921807     5A1   -33.921806     6A1   -33.921789  
       4B1   -33.920415     7A1   -33.920395     5B1   -33.920392  
       1A2   -33.918246     1B2   -33.918245     2B2   -33.918235  
       8A1    -4.290862     6B1    -4.290354     9A1    -4.290352  
      10A1    -2.963831    11A1    -2.963089     7B1    -2.963087  
       8B1    -2.961216     9B1    -2.959843    12A1    -2.959838  
       3B2    -2.959172     2A2    -2.958801     4B2    -2.958799  
      13A1    -0.567171    14A1    -0.552594    10B1    -0.552583  
       5B2    -0.551715    15A1    -0.541782     6B2    -0.538310  
       3A2    -0.538310    16A1    -0.521597    11B1    -0.521597  
       4A2    -0.518996    17A1    -0.515544    12B1    -0.515534  
       5A2    -0.515487     7B2    -0.515477    13B1    -0.500140  
      18A1    -0.467098  

    Virtual:                                                              

      19A1    -0.246043    14B1    -0.246035     8B2    -0.191576  
      20A1    -0.134999    15B1    -0.123837    21A1    -0.123837  
       9B2    -0.074614     6A2    -0.074603    22A1    -0.034749  
      16B1    -0.034748    17B1    -0.004028    23A1    -0.000074  
      10B2     0.007768    24A1     0.008711    25A1     0.026891  
      18B1     0.026893    11B2     0.051865     7A2     0.051871  
      26A1     0.068643     8A2     0.094908    12B2     0.094918  
      19B1     0.096334    27A1     0.101514    20B1     0.101520  
      28A1     0.112320    21B1     0.112330    13B2     0.123761  
      29A1     0.183519    22B1     0.183524     9A2     0.209272  
      30A1     0.218014    23B1     0.237227    31A1     0.237228  
      14B2     0.239781    10A2     0.239790    24B1     0.331268  
      32A1     0.350515    25B1     0.350533    33A1     0.496820  
      15B2     0.499989    34A1     0.548329    26B1     0.548363  
      16B2     0.602186    11A2     0.602189    35A1     0.640777  
      36A1     0.659666    27B1     0.659671    17B2     0.665462  
      18B2     0.697897    12A2     0.697924    37A1     0.778791  
      28B1     0.785596    38A1     0.788380    29B1     0.788383  
      13A2     0.867736    39A1     0.877428    30B1     0.877449  
      19B2     0.919123    14A2     0.919192    40A1     1.073179  
      31B1     1.073205    32B1     1.104473    20B2     2.750879  
      33B1     2.809643    41A1     2.809718    42A1     2.843204  
      21B2     2.854480    15A2     2.854571    43A1     2.877724  
      34B1     2.892727    44A1     2.892740    35B1     2.994513  
      45A1     3.161942    22B2     3.185941    23B2     3.189762  
      16A2     3.189773    36B1     3.206284    46A1     3.206309  
      37B1     3.208562    47A1     3.208570    24B2     3.211340  
      25B2     3.212480    17A2     3.212544    38B1     3.213258  
      48A1     3.213268    18A2     3.213876    39B1     3.214284  
      26B2     3.214959    19A2     3.214998    40B1     3.245543  
      49A1     3.245553    50A1     3.251100    41B1     3.263300  
      51A1     3.326614    42B1     3.326670    52A1     3.425076  
      20A2     3.425908    27B2     3.426014    28B2     3.448245  
      53A1     3.482571    43B1     3.482574    21A2     3.504684  
      22A2     3.551907    29B2     3.551908    54A1     3.655429  
      44B1     3.669227    55A1     3.669239    45B1     3.745156  
      46B1     3.951870    56A1     3.951872    57A1    12.500768  
      47B1    12.501240    48B1    12.501285    58A1    12.501292  
      59A1    12.502101    49B1    12.502127    30B2    12.502538  
      23A2    12.502622    31B2    12.502665    24A2    12.502855  
      32B2    12.503075    25A2    12.503108    60A1    12.503852  
      50B1    12.503953    51B1    12.504414    61A1    12.504506  
      26A2    12.504527    33B2    12.504550    34B2    12.504674  
      62A1    12.504744    52B1    12.504786    27A2    12.504926  
      28A2    12.504935    35B2    12.504958    63A1    12.505048  
      53B1    12.505406    64A1    12.505465    36B2    12.663072  
      29A2    12.663073    37B2    12.663215    65A1    12.663267  
      54B1    12.663291    66A1    12.663439    38B2    12.664061  
      30A2    12.664062    55B1    12.664463    67A1    12.667331  
      56B1    12.667352    39B2    12.667886    31A2    12.669658  
      57B1    12.673763    68A1    12.673789    69A1    12.676567  
      32A2    12.677030    40B2    12.677078    58B1    12.735169  
      70A1    12.738386    59B1    12.738446  

    Final Occupation by Irrep:
             A1    A2    B1    B2 
    DOCC [    18,    5,   13,    7 ]

  @DF-RKS Final Energy: -4922.15580497987776

   => Energetics <=

    Nuclear Repulsion Energy =            558.9605424093558668
    One-Electron Energy =               -7961.7111965652284198
    Two-Electron Energy =                2596.3050038256942571
    DFT Exchange-Correlation Energy =    -115.7100616697002238
    Empirical Dispersion Energy =          -0.0000929800000000
    VV10 Nonlocal Energy =                  0.0000000000000000
    Total Energy =                      -4922.1558049798777574

Computation Completed


Properties will be evaluated at   0.000000,   0.000000,   0.000000 [a0]

Properties computed using the SCF density matrix

  Nuclear Dipole Moment: [e a0]
     X:    -0.0000      Y:     0.0000      Z:     0.0000

  Electronic Dipole Moment: [e a0]
     X:     0.0000      Y:     0.0000      Z:     0.0000

  Dipole Moment: [e a0]
     X:    -0.0000      Y:     0.0000      Z:     0.0000     Total:     0.0000

  Dipole Moment: [D]
     X:    -0.0000      Y:     0.0000      Z:     0.0001     Total:     0.0001


*** tstop() called on bp1-compute00133.data.bp.acrc.priv at Fri Oct 29 08:41:26 2021
Module time:
	user time   =      38.70 seconds =       0.64 minutes
	system time =       2.01 seconds =       0.03 minutes
	total time  =          2 seconds =       0.03 minutes
Total time:
	user time   =     348.24 seconds =       5.80 minutes
	system time =      19.55 seconds =       0.33 minutes
	total time  =         27 seconds =       0.45 minutes

*** tstart() called on bp1-compute00133.data.bp.acrc.priv
*** at Fri Oct 29 08:41:26 2021


         ------------------------------------------------------------
                                   SCF GRAD                          
                          Rob Parrish, Justin Turney,                
                       Andy Simmonett, and Alex Sokolov              
         ------------------------------------------------------------

  ==> Geometry <==

    Molecular point group: c2v
    Full point group: C2v

    Geometry (in Angstrom), charge = 1, multiplicity = 1:

       Center              X                  Y                   Z               Mass       
    ------------   -----------------  -----------------  -----------------  -----------------
         CU           0.000000000000     0.000000000000     1.379104573266    62.929597720000
         CU           1.194226326950     0.000000000000    -0.689552286633    62.929597720000
         CU          -1.194226326950    -0.000000000000    -0.689552286633    62.929597720000

  Nuclear repulsion =  558.960542409355867

  ==> Basis Set <==

  Basis Set: DEF2-TZVPPD
    Blend: DEF2-TZVPPD
    Number of shells: 57
    Number of basis function: 201
    Number of Cartesian functions: 249
    Spherical Harmonics?: true
    Max angular momentum: 4

  ==> DFJKGrad: Density-Fitted SCF Gradients <==

    Gradient:                    1
    J tasked:                  Yes
    K tasked:                  Yes
    wK tasked:                  No
    OpenMP threads:             24
    Integrals threads:          24
    Memory [MiB]:           102996
    Schwarz Cutoff:          0E+00
    Fitting Condition:       1E-10

   => Auxiliary Basis Set <=

[...]
    Algorithm:                 Core
    Schwarz Cutoff:           1E-12
    Mask sparsity (%):       7.5543
    Fitting Condition:        1E-10

   => Auxiliary Basis Set <=

  Basis Set: (DEF2-TZVPPD AUX)
    Blend: DEF2-TZVPP-JKFIT
    Number of shells: 174
    Number of basis function: 792
    Number of Cartesian functions: 1131
    Spherical Harmonics?: true
    Max angular momentum: 6

  Cached 100.0% of DFT collocation blocks in 0.638 [GiB].

  Minimum eigenvalue in the overlap matrix is 8.2504500815E-04.
  Using Symmetric Orthogonalization.

  SCF Guess: Superposition of Atomic Densities via on-the-fly atomic UHF.

  ==> Iterations <==

                           Total Energy        Delta E     RMS |[F,P]|

   @DF-RKS iter SAD: -4915.25070569309992   -4.91525e+03   0.00000e+00 
    Occupation by irrep:
             Ap   App 
    DOCC [    33,   10 ]

   @DF-RKS iter   1: -4913.75217433713533    1.49853e+00   4.95297e-02 DIIS
    Occupation by irrep:
             Ap   App 
    DOCC [    31,   12 ]

   @DF-RKS iter   2: -4785.65357761529867    1.28099e+02   1.12924e-01 DIIS
   @DF-RKS iter   3: -4919.89590898186543   -1.34242e+02   2.14582e-02 DIIS
   @DF-RKS iter   4: -4921.59714913532753   -1.70124e+00   1.27918e-02 DIIS
   @DF-RKS iter   5: -4922.10404791663041   -5.06899e-01   4.04173e-03 DIIS
   @DF-RKS iter   6: -4922.13144007012215   -2.73922e-02   2.73423e-03 DIIS
   @DF-RKS iter   7: -4922.15471025432180   -2.32702e-02   5.19384e-04 DIIS
   @DF-RKS iter   8: -4922.15576825288736   -1.05800e-03   8.55287e-05 DIIS
   @DF-RKS iter   9: -4922.15578617201481   -1.79191e-05   6.33204e-05 DIIS
   @DF-RKS iter  10: -4922.15579946430080   -1.32923e-05   8.98904e-06 DIIS
   @DF-RKS iter  11: -4922.15580004680578   -5.82505e-07   4.35269e-06 DIIS
   @DF-RKS iter  12: -4922.15580023798793   -1.91182e-07   1.02053e-06 DIIS
   @DF-RKS iter  13: -4922.15580025751115   -1.95232e-08   5.92636e-07 DIIS
   @DF-RKS iter  14: -4922.15580026148655   -3.97540e-09   5.38481e-08 DIIS
   @DF-RKS iter  15: -4922.15580026164025   -1.53705e-10   8.28717e-09 DIIS
  Energy and wave function converged.


  ==> Post-Iterations <==

    Orbital Energies [Eh]
    ---------------------

    Doubly Occupied:                                                      

       1Ap  -320.901697     2Ap  -320.901694     3Ap  -320.901679  
       4Ap   -38.069793     5Ap   -38.069789     6Ap   -38.069548  
       7Ap   -33.921808     8Ap   -33.921804     9Ap   -33.921788  
      10Ap   -33.920414    11Ap   -33.920394    12Ap   -33.920390  
       1App  -33.918247     2App  -33.918243     3App  -33.918234  
      13Ap    -4.290860    14Ap    -4.290353    15Ap    -4.290350  
      16Ap    -2.963828    17Ap    -2.963091    18Ap    -2.963085  
      19Ap    -2.961216    20Ap    -2.959839    21Ap    -2.959837  
       4App   -2.959169     5App   -2.958798     6App   -2.958796  
      22Ap    -0.567172    23Ap    -0.552599    24Ap    -0.552573  
       7App   -0.551713    25Ap    -0.541782     8App   -0.538316  
       9App   -0.538301    26Ap    -0.521603    27Ap    -0.521589  
      10App   -0.518996    28Ap    -0.515545    29Ap    -0.515529  
      11App   -0.515484    12App   -0.515474    30Ap    -0.500139  
      31Ap    -0.467101  

    Virtual:                                                              

      32Ap    -0.246050    33Ap    -0.246025    13App   -0.191576  
      34Ap    -0.135002    35Ap    -0.123840    36Ap    -0.123832  
      14App   -0.074618    15App   -0.074595    37Ap    -0.034750  
      38Ap    -0.034746    39Ap    -0.004028    40Ap    -0.000072  
      16App    0.007767    41Ap     0.008710    42Ap     0.026890  
      43Ap     0.026895    17App    0.051862    18App    0.051875  
      44Ap     0.068647    19App    0.094911    20App    0.094921  
      45Ap     0.096332    46Ap     0.101509    47Ap     0.101525  
      48Ap     0.112312    49Ap     0.112338    21App    0.123763  
      50Ap     0.183519    51Ap     0.183528    22App    0.209275  
      52Ap     0.218013    53Ap     0.237225    54Ap     0.237234  
      23App    0.239775    24App    0.239795    55Ap     0.331266  
      56Ap     0.350494    57Ap     0.350563    58Ap     0.496826  
      25App    0.499998    59Ap     0.548324    60Ap     0.548383  
      26App    0.602177    27App    0.602217    61Ap     0.640742  
      62Ap     0.659663    63Ap     0.659679    28App    0.665457  
      29App    0.697881    30App    0.697949    64Ap     0.778794  
      65Ap     0.785611    66Ap     0.788356    67Ap     0.788408  
      31App    0.867736    68Ap     0.877396    69Ap     0.877466  
      32App    0.919121    33App    0.919185    70Ap     1.073102  
      71Ap     1.073225    72Ap     1.104458    34App    2.750874  
      73Ap     2.809600    74Ap     2.809720    75Ap     2.843209  
      35App    2.854502    36App    2.854540    76Ap     2.877725  
      77Ap     2.892646    78Ap     2.892795    79Ap     2.994503  
      80Ap     3.161942    37App    3.185943    38App    3.189752  
      39App    3.189790    81Ap     3.206283    82Ap     3.206311  
      83Ap     3.208535    84Ap     3.208561    40App    3.211343  
      41App    3.212494    42App    3.212552    85Ap     3.213258  
      86Ap     3.213291    43App    3.213898    87Ap     3.214270  
      44App    3.214976    45App    3.214994    88Ap     3.245541  
      89Ap     3.245568    90Ap     3.251099    91Ap     3.263262  
      92Ap     3.326581    93Ap     3.326678    94Ap     3.425019  
      46App    3.425972    47App    3.426042    48App    3.448235  
      95Ap     3.482483    96Ap     3.482527    49App    3.504718  
      50App    3.551853    51App    3.551910    97Ap     3.655479  
      98Ap     3.669182    99Ap     3.669341   100Ap     3.745160  
     101Ap     3.951826   102Ap     3.951875   103Ap    12.500954  
     104Ap    12.501032   105Ap    12.501478   106Ap    12.501498  
     107Ap    12.501883   108Ap    12.501944    52App   12.502645  
      53App   12.502659    54App   12.502759    55App   12.502850  
      56App   12.502889    57App   12.503015   109Ap    12.503844  
     110Ap    12.503958   111Ap    12.504363   112Ap    12.504498  
      58App   12.504529    59App   12.504644    60App   12.504667  
     113Ap    12.504705   114Ap    12.504752    61App   12.504811  
      62App   12.504916   115Ap    12.505032    63App   12.505052  
     116Ap    12.505328   117Ap    12.505526    64App   12.663033  
      65App   12.663097   118Ap    12.663240   119Ap    12.663257  
      66App   12.663268   120Ap    12.663550    67App   12.664107  
      68App   12.664124   121Ap    12.664426   122Ap    12.667281  
     123Ap    12.667380    69App   12.667888    70App   12.669643  
     124Ap    12.673873   125Ap    12.673896   126Ap    12.676567  
      71App   12.677020    72App   12.677081   127Ap    12.735095  
     128Ap    12.738306   129Ap    12.738427  

    Final Occupation by Irrep:
             Ap   App 
    DOCC [    31,   12 ]

  @DF-RKS Final Energy: -4922.15580026164025

   => Energetics <=

    Nuclear Repulsion Energy =            558.9605451331829045
    One-Electron Energy =               -7961.7113099830967258
    Two-Electron Energy =                2596.3051135494483788
    DFT Exchange-Correlation Energy =    -115.7100559811748752
    Empirical Dispersion Energy =          -0.0000929800000000
    VV10 Nonlocal Energy =                  0.0000000000000000
    Total Energy =                      -4922.1558002616411613

Computation Completed


Properties will be evaluated at   0.000000,   0.000000,   0.000000 [a0]

Properties computed using the SCF density matrix

  Nuclear Dipole Moment: [e a0]
     X:     0.0000      Y:     0.0000      Z:     0.0000

  Electronic Dipole Moment: [e a0]
     X:     0.0002      Y:     0.0000      Z:     0.0000

  Dipole Moment: [e a0]
     X:     0.0002      Y:     0.0000      Z:     0.0000     Total:     0.0002

  Dipole Moment: [D]
     X:     0.0006      Y:     0.0000      Z:     0.0000     Total:     0.0006


*** tstop() called on bp1-compute00133.data.bp.acrc.priv at Fri Oct 29 08:42:26 2021
Module time:
	user time   =      57.68 seconds =       0.96 minutes
	system time =       2.39 seconds =       0.04 minutes
	total time  =          3 seconds =       0.05 minutes
Total time:
	user time   =    1128.74 seconds =      18.81 minutes
	system time =      58.81 seconds =       0.98 minutes
	total time  =         87 seconds =       1.45 minutes

*** tstart() called on bp1-compute00133.data.bp.acrc.priv
*** at Fri Oct 29 08:42:26 2021


         ------------------------------------------------------------
                                   SCF GRAD                          
                          Rob Parrish, Justin Turney,                
                       Andy Simmonett, and Alex Sokolov              
         ------------------------------------------------------------

  ==> Geometry <==

    Molecular point group: cs
    Full point group: Cs

    Geometry (in Angstrom), charge = 1, multiplicity = 1:

       Center              X                  Y                   Z               Mass       
    ------------   -----------------  -----------------  -----------------  -----------------
         CU          -0.000192558386     0.000000000000     1.379104573266    62.929597720000
         CU           1.194322606143     0.000000000000    -0.689719062903    62.929597720000
         CU          -1.194130047757     0.000000000000    -0.689385510363    62.929597720000

  Nuclear repulsion =  558.960545133182904

  ==> Basis Set <==

  Basis Set: DEF2-TZVPPD
    Blend: DEF2-TZVPPD
    Number of shells: 57
    Number of basis function: 201
    Number of Cartesian functions: 249
    Spherical Harmonics?: true
    Max angular momentum: 4

  ==> DFJKGrad: Density-Fitted SCF Gradients <==

    Gradient:                    1
    J tasked:                  Yes
    K tasked:                  Yes
    wK tasked:                  No
    OpenMP threads:             24
    Integrals threads:          24
    Memory [MiB]:           102996
    Schwarz Cutoff:          0E+00
    Fitting Condition:       1E-10

   => Auxiliary Basis Set <=

  Basis Set: (DEF2-TZVPPD AUX)
    Blend: DEF2-TZVPP-JKFIT
    Number of shells: 174
    Number of basis function: 792
    Number of Cartesian functions: 1131
    Spherical Harmonics?: true
    Max angular momentum: 6

  ==> DFT Potential <==

   => Composite Functional: MN15-D3BJ <= 

   MN15 Hybrid Meta-GGA Exchange-Correlation Functional

    H. S. Yu, X. He, S. L. Li, and D. G. Truhlar, Chem. Sci. 7, 5032-5051, 2016


    Deriv               =              1
    GGA                 =           TRUE
    Meta                =           TRUE

    Exchange Hybrid     =           TRUE
    MP2 Hybrid          =          FALSE

   => Exchange Functionals <=

    1.0000   XC_HYB_MGGA_X_MN15

   => Exact (HF) Exchange <=

    0.4400               HF 

   => Correlation Functionals <=

    1.0000   XC_MGGA_C_MN15

   => Molecular Quadrature <=

    Radial Scheme          =       TREUTLER
    Pruning Scheme         =           FLAT
    Nuclear Scheme         =       TREUTLER

    BS radius alpha        =              1
    Pruning alpha          =              1
    Radial Points          =             75
    Spherical Points       =            302
    Total Points           =          67950
    Total Blocks           =            598
    Max Points             =            255
    Max Functions          =            191


  -Total Gradient:
     Atom            X                  Y                   Z
    ------   -----------------  -----------------  -----------------
       1       -0.000024572206     0.000000000000    -0.000067135579
       2       -0.000048470529     0.000000000000     0.000045095492
       3        0.000073685534     0.000000000000     0.000091607523


*** tstop() called on bp1-compute00133.data.bp.acrc.priv at Fri Oct 29 08:42:31 2021
Module time:
	user time   =      50.86 seconds =       0.85 minutes
	system time =       2.81 seconds =       0.05 minutes
	total time  =          5 seconds =       0.08 minutes
Total time:
	user time   =    1181.05 seconds =      19.68 minutes
	system time =      61.72 seconds =       1.03 minutes
	total time  =         92 seconds =       1.53 minutes

         ----------------------------------------------------------
                                   FINDIF
                     R. A. King and Jonathon Misiewicz
         ---------------------------------------------------------

  Computing second-derivative from gradients using projected, 
  symmetry-adapted, cartesian coordinates.

  6 gradients passed in, including the reference geometry.
  Generating complete list of displacements from unique ones.

    Operation 2 takes plus displacements of irrep B1 to minus ones.

-------------------------------------------------------------


  ==> Harmonic Vibrational Analysis <==

  non-mass-weighted Hessian:       Symmetric? True   Hermitian? True   Lin Dep Dim?  6 (0)
  projection of translations (True) and rotations (True) removed 6 degrees of freedom (6)
  total projector:                 Symmetric? True   Hermitian? True   Lin Dep Dim?  6 (6)
  mass-weighted Hessian:           Symmetric? True   Hermitian? True   Lin Dep Dim?  6 (0)
  pre-proj  low-frequency mode:    0.0000i [cm^-1]
  pre-proj  low-frequency mode:    0.0000i [cm^-1]
  pre-proj  low-frequency mode:    0.0000i [cm^-1]
  pre-proj  low-frequency mode:    0.0000  [cm^-1]
  pre-proj  low-frequency mode:    0.0000  [cm^-1]
  pre-proj  low-frequency mode:    0.0000  [cm^-1]
  pre-proj  all modes:['0.0000i' '0.0000i' '0.0000i' '0.0000' '0.0000' '0.0000' '172.1939'
 '172.6097' '244.2026']
  projected mass-weighted Hessian: Symmetric? True   Hermitian? True   Lin Dep Dim?  6 (6)
  post-proj low-frequency mode:    0.0000i [cm^-1] (TR)
  post-proj low-frequency mode:    0.0000i [cm^-1] (TR)
  post-proj low-frequency mode:    0.0000i [cm^-1] (TR)
  post-proj low-frequency mode:    0.0000i [cm^-1] (TR)
  post-proj low-frequency mode:    0.0000  [cm^-1] (TR)
  post-proj low-frequency mode:    0.0000  [cm^-1] (TR)
  post-proj  all modes:['0.0000i' '0.0000i' '0.0000i' '0.0000i' '0.0000' '0.0000' '172.1939'
 '172.6097' '244.2026']

  Vibration                       7                   8                   9           
  Freq [cm^-1]                 172.1939            172.6097            244.2026       
  Irrep                           A1                  B1                  A1          
  Reduced mass [u]             62.9296             62.9296             62.9296        
  Force const [mDyne/A]         1.0994              1.1047              2.2111        
  Turning point v=0 [a0]        0.1054              0.1053              0.0885        
  RMS dev v=0 [a0 u^1/2]        0.5913              0.5906              0.4965        
  Char temp [K]                247.7488            248.3470            351.3531       
  ----------------------------------------------------------------------------------
      1   CU              -0.00  0.00  0.58    0.58 -0.00  0.00    0.00 -0.00  0.57   
      2   CU              -0.50 -0.00 -0.29   -0.29  0.00  0.50    0.50 -0.00 -0.29   
      3   CU               0.50  0.00 -0.29   -0.29 -0.00 -0.50   -0.50  0.00 -0.29   

  ==> Thermochemistry Components <==

  Entropy, S
    Electronic S            0.000 [cal/(mol K)]        0.000 [J/(mol K)]       0.00000000 [mEh/K] (multiplicity = 1)
    Translational S        41.612 [cal/(mol K)]      174.105 [J/(mol K)]       0.06631321 [mEh/K] (mol. weight = 188.7888 [u], P = 101325.00 [Pa])
    Rotational S           26.379 [cal/(mol K)]      110.372 [J/(mol K)]       0.04203838 [mEh/K] (symmetry no. = 2)
    Vibrational S           6.590 [cal/(mol K)]       27.574 [J/(mol K)]       0.01050235 [mEh/K]
  Total S                  74.582 [cal/(mol K)]      312.051 [J/(mol K)]       0.11885394 [mEh/K]
  Correction S              0.000 [cal/(mol K)]        0.000 [J/(mol K)]       0.00000000 [mEh/K]

  Constant volume heat capacity, Cv
    Electronic Cv           0.000 [cal/(mol K)]        0.000 [J/(mol K)]       0.00000000 [mEh/K]
    Translational Cv        2.981 [cal/(mol K)]       12.472 [J/(mol K)]       0.00475022 [mEh/K]
    Rotational Cv           2.981 [cal/(mol K)]       12.472 [J/(mol K)]       0.00475022 [mEh/K]
    Vibrational Cv          5.525 [cal/(mol K)]       23.118 [J/(mol K)]       0.00880504 [mEh/K]
  Total Cv                 11.487 [cal/(mol K)]       48.061 [J/(mol K)]       0.01830547 [mEh/K]
  Correction Cv             0.000 [cal/(mol K)]        0.000 [J/(mol K)]       0.00000000 [mEh/K]

  Constant pressure heat capacity, Cp
    Electronic Cp           0.000 [cal/(mol K)]        0.000 [J/(mol K)]       0.00000000 [mEh/K]
    Translational Cp        4.968 [cal/(mol K)]       20.786 [J/(mol K)]       0.00791703 [mEh/K]
    Rotational Cp           2.981 [cal/(mol K)]       12.472 [J/(mol K)]       0.00475022 [mEh/K]
    Vibrational Cp          5.525 [cal/(mol K)]       23.118 [J/(mol K)]       0.00880504 [mEh/K]
  Total Cp                 13.474 [cal/(mol K)]       56.375 [J/(mol K)]       0.02147228 [mEh/K]
  Correction Cp             0.000 [cal/(mol K)]        0.000 [J/(mol K)]       0.00000000 [mEh/K]

  ==> Thermochemistry Energy Analysis <==

  Raw electronic energy, E0
  Total E0, Electronic energy at well bottom at 0 [K]                -4922.15580498 [Eh]

  Zero-point energy, ZPE_vib = Sum_i nu_i / 2
    Electronic ZPE          0.000 [kcal/mol]        0.000 [kJ/mol]       0.00000000 [Eh]
    Translational ZPE       0.000 [kcal/mol]        0.000 [kJ/mol]       0.00000000 [Eh]
    Rotational ZPE          0.000 [kcal/mol]        0.000 [kJ/mol]       0.00000000 [Eh]
    Vibrational ZPE         0.842 [kcal/mol]        3.523 [kJ/mol]       0.00134185 [Eh]         294.503 [cm^-1]
  Correction ZPE            0.842 [kcal/mol]        3.523 [kJ/mol]       0.00134185 [Eh]         294.503 [cm^-1]
  Total ZPE, Electronic energy at 0 [K]                              -4922.15446312 [Eh]

  Thermal Energy, E (includes ZPE)
    Electronic E            0.000 [kcal/mol]        0.000 [kJ/mol]       0.00000000 [Eh]
    Translational E         0.889 [kcal/mol]        3.718 [kJ/mol]       0.00141628 [Eh]
    Rotational E            0.889 [kcal/mol]        3.718 [kJ/mol]       0.00141628 [Eh]
    Vibrational E           1.912 [kcal/mol]        8.000 [kJ/mol]       0.00304706 [Eh]
  Correction E              3.690 [kcal/mol]       15.437 [kJ/mol]       0.00587961 [Eh]
  Total E, Electronic energy at  298.15 [K]                          -4922.14992537 [Eh]

  Enthalpy, H_trans = E_trans + k_B * T
    Electronic H            0.000 [kcal/mol]        0.000 [kJ/mol]       0.00000000 [Eh]
    Translational H         1.481 [kcal/mol]        6.197 [kJ/mol]       0.00236046 [Eh]
    Rotational H            0.889 [kcal/mol]        3.718 [kJ/mol]       0.00141628 [Eh]
    Vibrational H           1.912 [kcal/mol]        8.000 [kJ/mol]       0.00304706 [Eh]
  Correction H              4.282 [kcal/mol]       17.916 [kJ/mol]       0.00682380 [Eh]
  Total H, Enthalpy at  298.15 [K]                                   -4922.14898118 [Eh]

  Gibbs free energy, G = H - T * S
    Electronic G            0.000 [kcal/mol]        0.000 [kJ/mol]       0.00000000 [Eh]
    Translational G       -10.925 [kcal/mol]      -45.712 [kJ/mol]      -0.01741082 [Eh]
    Rotational G           -6.976 [kcal/mol]      -29.189 [kJ/mol]      -0.01111747 [Eh]
    Vibrational G          -0.053 [kcal/mol]       -0.221 [kJ/mol]      -0.00008422 [Eh]
  Correction G            -17.955 [kcal/mol]      -75.122 [kJ/mol]      -0.02861251 [Eh]
  Total G, Free enthalpy at  298.15 [K]                              -4922.18441749 [Eh]

    Psi4 stopped on: Friday, 29 October 2021 08:42AM
    Psi4 wall time for execution: 0:01:32.83

*** Psi4 exiting successfully. Buy a developer a beer!
