Optimizer: Optimization complete!
 6 displacements needed.
 1 2 3 4 5 6
Warning: thermodynamics relations excluded imaginary frequencies: ['69.8137i' '69.8137i']
Warning: used thermodynamics relations inappropriate for low-frequency modes: ['141.1160' '239.5151']
At level 1: Red. Int., RFO, no backsteps, dynamic trust
At level 1: Red. Int., RFO, no backsteps, dynamic trust
At level 1: Red. Int., RFO, no backsteps, dynamic trust
At level 1: Red. Int., RFO, no backsteps, dynamic trust
Y. Xie, Z. L. Glick, D. A. Sirianni,
    J. S. O'Brien, J. M. Waldrop, A. Kumar, E. G. Hohenstein,
    B. P. Pritchard, B. R. Brooks, H. F. Schaefer III, A. Yu. Sokolov,
    K. Patkowski, A. E. DePrince III, U. Bozkaya, R. A. King,
    F. A. Evangelista, J. M. Turney, T. D. Crawford, C. D. Sherrill,
    J. Chem. Phys. 152(18) 184108 (2020). https://doi.org/10.1063/5.0006002

                            Additional Code Authors
    E. T. Seidl, C. L. Janssen, E. F. Valeev, M. L. Leininger,
    J. F. Gonthier, R. M. Richard, H. R. McAlexander, M. Saitow, X. Wang,
    P. Verma, and M. H. Lechner

             Previous Authors, Complete List of Code Contributors,
                       and Citations for Specific Modules
    https://github.com/psi4/psi4/blob/master/codemeta.json
    https://github.com/psi4/psi4/graphs/contributors
    http://psicode.org/psi4manual/master/introduction.html#citing-psifour

    -----------------------------------------------------------------------


    Psi4 started on: Tuesday, 02 November 2021 10:31AM

    Process ID: 27666
    Host:       compute227.bc4.acrc.priv
    PSIDATADIR: /mnt/storage/home/zw18965/.conda/envs/p4env/share/psi4
    Memory:     500.0 MiB
    Threads:    28
    
  ==> Input File <==

--------------------------------------------------------------------------
memory 120 GB

molecule {
1 1
Cu       0.000000    0.000000    0.000000 
Cu       0.000000    0.000000    2.337165 
Cu       0.000000    0.000000   -2.337165 
 }

set dynamic_level 1
set basis Def2-TZVPPD

optimize("MN15-D3BJ")
frequencies("MN15-D3BJ")
--------------------------------------------------------------------------

  Memory set to 111.759 GiB by Python driver.

Scratch directory: /tmp/
gradient() will perform analytic gradient computation.

*** tstart() called on compute227.bc4.acrc.priv
*** at Tue Nov  2 10:31:01 2021

   => Loading Basis Set <=

    Name: DEF2-TZVPPD
    Role: ORBITAL
    Keyword: BASIS
    atoms 1-3 entry CU         line  1290 file /mnt/storage/home/zw18965/.conda/envs/p4env/share/psi4/basis/def2-tzvppd.gbs 

   => MN15-D3(BJ): Empirical Dispersion <=

    Grimme's -D3 (BJ-damping) Dispersion Correction
    Grimme S.; Ehrlich S.; Goerigk L. (2011), J. Comput. Chem., 32: 1456
    Parametrisation from:    L. Goerigk, A. Hansen, C. Bauer, S. Ehrlich, A. Najibi, S. Grimme, Phys. Chem. Chem. Phys. 19, 32184-32215, 2017

        s6 =       1.000000
        s8 =       2.097100
        a1 =       0.786200
        a2 =       7.592300


         ---------------------------------------------------------
                                   SCF
               by Justin Turney, Rob Parrish, Andy Simmonett
                          and Daniel G. A. Smith
                              RKS Reference
                       28 Threads, 114440 MiB Core
         ---------------------------------------------------------

  ==> Geometry <==

    Molecular point group: d2h
    Full point group: D_inf_h

    Geometry (in Angstrom), charge = 1, multiplicity = 1:

       Center              X                  Y                   Z               Mass       
    ------------   -----------------  -----------------  -----------------  -----------------
         CU           0.000000000000     0.000000000000     0.000000000000    62.929597720000
         CU           0.000000000000     0.000000000000     2.337165000000    62.929597720000
         CU           0.000000000000     0.000000000000    -2.337165000000    62.929597720000

  Running in d2h symmetry.

  Rotational constants: A = ************  B =      0.02452  C =      0.02452 [cm^-1]
  Rotational constants: A = ************  B =    735.11198  C =    735.11198 [MHz]
  Nuclear repulsion =  476.044731729969840

  Charge       = 1
  Multiplicity = 1
  Electrons    = 86
  Nalpha       = 43
  Nbeta        = 43

  ==> Algorithm <==

  SCF Algorithm Type is DF.
  DIIS enabled.
  MOM disabled.
  Fractional occupation disabled.
  Guess Type is SAD.
  Energy threshold   = 1.00e-08
  Density threshold  = 1.00e-08
  Integral threshold = 1.00e-12

  ==> Primary Basis <==

  Basis Set: DEF2-TZVPPD
    Blend: DEF2-TZVPPD
    Number of shells: 57
    Number of basis functions: 201
    Number of Cartesian functions: 249
    Spherical Harmonics?: true
    Max angular momentum: 4

  ==> DFT Potential <==

   => Composite Functional: MN15-D3BJ <= 

   MN15 Hybrid Meta-GGA Exchange-Correlation Functional

    H. S. Yu, X. He, S. L. Li, and D. G. Truhlar, Chem. Sci. 7, 5032-5051, 2016


    Deriv               =              1
    GGA                 =           TRUE
    Meta                =           TRUE

    Exchange Hybrid     =           TRUE
    MP2 Hybrid          =          FALSE

   => Exchange Functionals <=

    1.0000   XC_HYB_MGGA_X_MN15

   => Exact (HF) Exchange <=

    0.4400               HF 

   => Correlation Functionals <=

    1.0000   XC_MGGA_C_MN15

   => LibXC Density Thresholds  <==

    XC_MGGA_C_MN15:  1.00E-15 
    XC_HYB_MGGA_X_MN15:  1.00E-15 

   => Molecular Quadrature <=

    Radial Scheme          =       TREUTLER
    Pruning Scheme         =           NONE
    Nuclear Scheme         =       TREUTLER

    BS radius alpha        =              1
    Pruning alpha          =              1
    Radial Points          =             75
    Spherical Points       =            302
    Total Points           =          65070
    Total Blocks           =            626
    Max Points             =            256
    Max Functions          =            170
    Weights Tolerance      =       1.00E-15

   => Loading Basis Set <=

    Name: (DEF2-TZVPPD AUX)
    Role: JKFIT
    Keyword: DF_BASIS_SCF
    atoms 1-3 entry CU         line  2356 file /mnt/storage/home/zw18965/.conda/envs/p4env/share/psi4/basis/def2-universal-jkfit.gbs 

  ==> Integral Setup <==

  DFHelper Memory: AOs need 0.226 GiB; user supplied 83.275 GiB. Using in-core AOs.

  ==> MemDFJK: Density-Fitted J/K Matrices <==

    J tasked:                   Yes
    K tasked:                   Yes
    wK tasked:                   No
    OpenMP threads:              28
    Memory [MiB]:             85273
    Algorithm:                 Core
    Schwarz Cutoff:           1E-12
    Mask sparsity (%):      15.7471
    Fitting Condition:        1E-10

   => Auxiliary Basis Set <=

  Basis Set: (DEF2-TZVPPD AUX)
    Blend: DEF2-UNIVERSAL-JKFIT
    Number of shells: 174
    Number of basis functions: 792
    Number of Cartesian functions: 1131
    Spherical Harmonics?: true
    Max angular momentum: 6

  Cached 100.0% of DFT collocation blocks in 0.544 [GiB].

  Minimum eigenvalue in the overlap matrix is 4.2568406491E-04.
  Reciprocal condition number of the overlap matrix is 9.9470666045E-05.
    Using symmetric orthogonalization.

  ==> Pre-Iterations <==

  SCF Guess: Superposition of Atomic Densities via on-the-fly atomic UHF (no occupation information).

   -------------------------
    Irrep   Nso     Nmo    
   -------------------------
     Ag        44      44 
     B1g       14      14 
     B2g       22      22 
     B3g       22      22 
     Au        10      10 
     B1u       37      37 
     B2u       26      26 
     B3u       26      26 
   -------------------------
    Total     201     201
   -------------------------

  ==> Iterations <==

                           Total Energy        Delta E     RMS |[F,P]|

   @DF-RKS iter SAD: -4914.84914049557483   -4.91485e+03   0.00000e+00 
    Occupation by irrep:
             Ag   B1g   B2g   B3g    Au   B1u   B2u   B3u 
    DOCC [    13,    1,    3,    3,    0,   10,    7,    6 ]

   @DF-RKS iter   1: -4913.66568335790907    1.18346e+00   9.54496e-02 DIIS
    Occupation by irrep:
             Ag   B1g   B2g   B3g    Au   B1u   B2u   B3u 
    DOCC [    13,    2,    4,    4,    1,    9,    5,    5 ]

   @DF-RKS iter   2: -4790.43917790595333    1.23227e+02   2.14937e-01 DIIS
    Occupation by irrep:
             Ag   B1g   B2g   B3g    Au   B1u   B2u   B3u 
    DOCC [    12,    2,    4,    4,    1,   10,    5,    5 ]

   @DF-RKS iter   3: -4919.73022666506313   -1.29291e+02   4.34683e-02 DIIS
    Occupation by irrep:
             Ag   B1g   B2g   B3g    Au   B1u   B2u   B3u 
    DOCC [    13,    2,    4,    4,    1,    9,    5,    5 ]

   @DF-RKS iter   4: -4912.75881374756045    6.97141e+00   7.63136e-02 DIIS
   @DF-RKS iter   5: -4921.11027190650566   -8.35146e+00   3.24571e-02 DIIS
   @DF-RKS iter   6: -4922.04988574970594   -9.39614e-01   6.97557e-03 DIIS
   @DF-RKS iter   7: -4922.08109697758846   -3.12112e-02   3.32531e-03 DIIS
   @DF-RKS iter   8: -4922.09302079484132   -1.19238e-02   1.35466e-03 DIIS
   @DF-RKS iter   9: -4922.09465893497600   -1.63814e-03   6.78914e-05 DIIS
   @DF-RKS iter  10: -4922.09466805232660   -9.11735e-06   1.47937e-05 DIIS
   @DF-RKS iter  11: -4922.09466920377872   -1.15145e-06   7.09670e-06 DIIS
   @DF-RKS iter  12: -4922.09466965804768   -4.54269e-07   2.08677e-06 DIIS
   @DF-RKS iter  13: -4922.09466969705227   -3.90046e-08   9.00407e-07 DIIS
   @DF-RKS iter  14: -4922.09466970158428   -4.53201e-09   7.16176e-08 DIIS
   @DF-RKS iter  15: -4922.09466970163521   -5.09317e-11   1.99547e-08 DIIS
   @DF-RKS iter  16: -4922.09466970163612   -9.09495e-13   3.54136e-09 DIIS
  Energy and wave function converged.


  ==> Post-Iterations <==

   Electrons on quadrature grid:
      Ntotal   =   85.9999858792 ; deviation = -1.412e-05 

    Orbital Energies [Eh]
    ---------------------

    Doubly Occupied:                                                      

       1B1u -320.906230     1Ag  -320.906224     2Ag  -320.867117  
       2B1u  -38.069543     3Ag   -38.069454     4Ag   -38.038835  
       5Ag   -33.922082     3B1u  -33.922078     1B3g  -33.920432  
       1B2g  -33.920432     1B2u  -33.920428     1B3u  -33.920428  
       4B1u  -33.891934     2B3u  -33.886974     2B2u  -33.886974  
       5B1u   -4.293306     6Ag    -4.293252     7Ag    -4.258086  
       6B1u   -2.966634     8Ag    -2.966416     3B3u   -2.964091  
       3B2u   -2.964091     2B2g   -2.964083     2B3g   -2.964083  
       7B1u   -2.931563     4B2u   -2.925084     4B3u   -2.925084  
       9Ag    -0.560870     3B2g   -0.545020     3B3g   -0.545020  
       8B1u   -0.538235     5B3u   -0.537016     5B2u   -0.537016  
      10Ag    -0.534651     1B1g   -0.534649     9B1u   -0.534156  
       1Au    -0.534154    11Ag    -0.492266     2B1g   -0.492264  
       4B2g   -0.488598     4B3g   -0.488598    12Ag    -0.486776  
      13Ag    -0.428285  

    Virtual:                                                              

      10B1u   -0.304859    14Ag    -0.191903     6B3u   -0.175796  
       6B2u   -0.175796    11B1u   -0.123820     5B2g   -0.113142  
       5B3g   -0.113142     7B3u   -0.032522     7B2u   -0.032522  
      12B1u   -0.021434    15Ag    -0.021035    16Ag    -0.009514  
       8B2u    0.021216     8B3u    0.021216     6B3g    0.038845  
       6B2g    0.038845    17Ag     0.041208    13B1u    0.041213  
       3B1g    0.041213    18Ag     0.084866     9B2u    0.087977  
       9B3u    0.087977    14B1u    0.092758     2Au     0.092761  
      19Ag     0.113773     7B2g    0.126477     7B3g    0.126477  
      15B1u    0.156545    20Ag     0.180956     4B1g    0.180958  
      16B1u    0.196515    10B3u    0.235529    10B2u    0.235529  
      21Ag     0.256854     8B3g    0.338633     8B2g    0.338633  
      22Ag     0.377727    17B1u    0.420359    18B1u    0.472576  
      11B2u    0.534202    11B3u    0.534202     9B3g    0.557399  
       9B2g    0.557399    12B3u    0.621576    12B2u    0.621576  
      23Ag     0.640313     5B1g    0.724272    24Ag     0.724310  
       3Au     0.759470    19B1u    0.759497    10B2g    0.761572  
      10B3g    0.761572    20B1u    0.773225    25Ag     0.802446  
      13B2u    0.812834    13B3u    0.812834     6B1g    0.831704  
      26Ag     0.831752    11B3g    1.000447    11B2g    1.000447  
      21B1u    1.024647    27Ag     1.307738    14B2u    2.759035  
      14B3u    2.759035    28Ag     2.824737    12B3g    2.844992  
      12B2g    2.844992    22B1u    2.856641    15B2u    2.883500  
      15B3u    2.883500    23B1u    2.888839    29Ag     2.995429  
      30Ag     3.164590    13B3g    3.188622    13B2g    3.188622  
      24B1u    3.189588    16B2u    3.195432    16B3u    3.195432  
       4Au     3.199139    25B1u    3.199192     7B1g    3.199918  
      31Ag     3.199969    17B3u    3.201988    17B2u    3.201988  
      14B2g    3.201989    14B3g    3.201989    18B2u    3.236963  
      18B3u    3.236963     5Au     3.245458    26B1u    3.245546  
      19B3u    3.254989    19B2u    3.254989    27B1u    3.263833  
      32Ag     3.354646     8B1g    3.402479    33Ag     3.402512  
       6Au     3.419922    28B1u    3.419948    15B3g    3.452431  
      15B2g    3.452431     9B1g    3.483905    34Ag     3.483959  
      29B1u    3.496035    20B2u    3.523453    20B3u    3.523453  
      16B3g    3.625733    16B2g    3.625733    35Ag     3.733758  
      30B1u    3.835855    36Ag     4.185054    21B2u   12.496243  
      21B3u   12.496243    17B3g   12.496869    17B2g   12.496869  
       7Au    12.496881    10B1g   12.496922    31B1u   12.496954  
      37Ag    12.496995    32B1u   12.497196    38Ag    12.497658  
      22B3u   12.497915    22B2u   12.497915    18B2g   12.497916  
      18B3g   12.497916    33B1u   12.498834    39Ag    12.498834  
      11B1g   12.498960     8Au    12.498960    19B3g   12.535257  
      19B2g   12.535257    12B1g   12.536512    40Ag    12.536649  
      41Ag    12.537731    20B2g   12.539517    20B3g   12.539517  
      42Ag    12.543191    13B1g   12.543366     9Au    12.660737  
      34B1u   12.660868    23B3u   12.661438    23B2u   12.661438  
      21B2g   12.661497    21B3g   12.661497    24B2u   12.661506  
      24B3u   12.661506    14B1g   12.661557    43Ag    12.661687  
      22B2g   12.672734    22B3g   12.672734    35B1u   12.674749  
      10Au    12.696709    36B1u   12.696903    25B2u   12.698988  
      25B3u   12.698988    26B2u   12.707404    26B3u   12.707404  
      44Ag    12.736403    37B1u   12.783975  

    Final Occupation by Irrep:
             Ag   B1g   B2g   B3g    Au   B1u   B2u   B3u 
    DOCC [    13,    2,    4,    4,    1,    9,    5,    5 ]

  @DF-RKS Final Energy: -4922.09466970163612

   => Energetics <=

    Nuclear Repulsion Energy =            476.0447317299698398
    One-Electron Energy =               -7796.5876315024161158
    Two-Electron Energy =                2514.1447739997693134
    DFT Exchange-Correlation Energy =    -115.6964504889598686
    Empirical Dispersion Energy =          -0.0000934400000000
    VV10 Nonlocal Energy =                  0.0000000000000000
    Total Energy =                      -4922.0946697016370308

Computation Completed


Properties will be evaluated at   0.000000,   0.000000,   0.000000 [a0]

Properties computed using the SCF density matrix

  Nuclear Dipole Moment: [e a0]
     X:     0.0000      Y:     0.0000      Z:    -0.0000

  Electronic Dipole Moment: [e a0]
     X:     0.0000      Y:     0.0000      Z:     0.0000

  Dipole Moment: [e a0]
     X:     0.0000      Y:     0.0000      Z:    -0.0000     Total:     0.0000

  Dipole Moment: [D]
     X:     0.0000      Y:     0.0000      Z:    -0.0000     Total:     0.0000


*** tstop() called on compute227.bc4.acrc.priv at Tue Nov  2 10:31:09 2021
Module time:
	user time   =      78.12 seconds =       1.30 minutes
	system time =       4.07 seconds =       0.07 minutes
	total time  =          8 seconds =       0.13 minutes
Total time:
	user time   =      78.12 seconds =       1.30 minutes
	system time =       4.07 seconds =       0.07 minutes
	total time  =          8 seconds =       0.13 minutes

*** tstart() called on compute227.bc4.acrc.priv
*** at Tue Nov  2 10:31:09 2021


         ------------------------------------------------------------
                                   SCF GRAD                          
                          Rob Parrish, Justin Turney,                
                       Andy Simmonett, and Alex Sokolov              
         ------------------------------------------------------------

  ==> Geometry <==

    Molecular point group: d2h
    Full point group: D_inf_h

    Geometry (in Angstrom), charge = 1, multiplicity = 1:

       Center              X                  Y                   Z               Mass       
    ------------   -----------------  -----------------  -----------------  -----------------
         CU           0.000000000000     0.000000000000     0.000000000000    62.929597720000
         CU           0.000000000000     0.000000000000     2.337165000000    62.929597720000
         CU           0.000000000000     0.000000000000    -2.337165000000    62.929597720000

  Nuclear repulsion =  476.044731729969840

  ==> Basis Set <==

  Basis Set: DEF2-TZVPPD
    Blend: DEF2-TZVPPD
    Number of shells: 57
    Number of basis functions: 201
    Number of Cartesian functions: 249
    Spherical Harmonics?: true
    Max angular momentum: 4

  ==> DFJKGrad: Density-Fitted SCF Gradients <==

    Gradient:                    1
    J tasked:                  Yes
    K tasked:                  Yes
    wK tasked:                  No
    OpenMP threads:             28
    Integrals threads:          28
    Memory [MiB]:            85830
    Schwarz Cutoff:          1E-12
    Fitting Condition:       1E-10

   => Auxiliary Basis Set <=

  Basis Set: (DEF2-TZVPPD AUX)
    Blend: DEF2-UNIVERSAL-JKFIT
    Number of shells: 174
    Number of basis functions: 792
    Number of Cartesian functions: 1131
    Spherical Harmonics?: true
    Max angular momentum: 6

  ==> DFT Potential <==

   => Composite Functional: MN15-D3BJ <= 

   MN15 Hybrid Meta-GGA Exchange-Correlation Functional

    H. S. Yu, X. He, S. L. Li, and D. G. Truhlar, Chem. Sci. 7, 5032-5051, 2016


    Deriv               =              1
    GGA                 =           TRUE
    Meta                =           TRUE

    Exchange Hybrid     =           TRUE
    MP2 Hybrid          =          FALSE

   => Exchange Functionals <=

    1.0000   XC_HYB_MGGA_X_MN15

   => Exact (HF) Exchange <=

    0.4400               HF 

   => Correlation Functionals <=

    1.0000   XC_MGGA_C_MN15

   => LibXC Density Thresholds  <==

    XC_MGGA_C_MN15:  1.00E-15 
    XC_HYB_MGGA_X_MN15:  1.00E-15 

   => Molecular Quadrature <=

    Radial Scheme          =       TREUTLER
    Pruning Scheme         =           NONE
    Nuclear Scheme         =       TREUTLER

    BS radius alpha        =              1
    Pruning alpha          =              1
    Radial Points          =             75
    Spherical Points       =            302
    Total Points           =          65070
    Total Blocks           =            626
    Max Points             =            256
    Max Functions          =            170
    Weights Tolerance      =       1.00E-15


  -Total Gradient:
     Atom            X                  Y                   Z
    ------   -----------------  -----------------  -----------------
       1        0.000000000000    -0.000000000000     0.000000000000
       2        0.000000000000     0.000000000000    -0.002533300996
       3        0.000000000000    -0.000000000000     0.002533300996


*** tstop() called on compute227.bc4.acrc.priv at Tue Nov  2 10:31:25 2021
Module time:
	user time   =      61.16 seconds =       1.02 minutes
	system time =       5.21 seconds =       0.09 minutes
	total time  =         16 seconds =       0.27 minutes
Total time:
	user time   =     141.30 seconds =       2.35 minutes
	system time =       9.36 seconds =       0.16 minutes
	total time  =         24 seconds =       0.40 minutes

			-----------------------------------------
			 OPTKING 2.0: for geometry optimizations 
			  - R.A. King,  Bethel University        
			-----------------------------------------
	At level 1: Red. Int., RFO, no backsteps, dynamic trust

	Internal coordinates to be generated automatically.
	Detected frag 1 with atoms:  1 2 3
	---Fragment 1 Bond Connectivity---
	 1 : 2 3
	 2 : 1
	 3 : 1

	---Fragment 1 Geometry and Gradient---
	 CU          0.0000000000        0.0000000000        0.0000000000
	 CU          0.0000000000        0.0000000000        4.4166017600
	 CU          0.0000000000        0.0000000000       -4.4166017600
	             0.0000000000       -0.0000000000        0.0000000000
	             0.0000000000        0.0000000000       -0.0025333010
	             0.0000000000       -0.0000000000        0.0025333010

	Previous optimization step data not found.  Starting new optimization.

	---Fragment 1 Intrafragment Coordinates---
	 - Coordinate -           - BOHR/RAD -       - ANG/DEG -
	 R(1,2)           =         4.416602	       2.337165
	 R(1,3)           =         4.416602	       2.337165
	 L(2,1,3)         =         3.141593	     180.000000
	 l(2,1,3)         =         3.141593	     180.000000

	Current energy   :     -4922.0946697016

	Generating empirical Hessian (Schlegel '84) for each fragment.
	Taking RFO optimization step.
	Going to follow RFO solution 1.
	Using RFO vector 1.
	Norm of target step-size    0.02675
	Projected energy change by RFO approximation:         0.0002616821

	Back-transformation to cartesian coordinates...
	Successfully converged to displaced geometry.

	--- Internal Coordinate Step in ANG or DEG, aJ/ANG or AJ/DEG ---
	 ---------------------------------------------------------------------------
	   Coordinate                Previous        Force       Change         New 
	   ----------                --------       ------       ------       ------
	    1 R(1,2)          =      2.337165     0.020871     0.010008     2.347173
	    2 R(1,3)          =      2.337165     0.020871     0.010008     2.347173
	    3 L(2,1,3)        =    180.000000     0.000000     0.000000   180.000000
	    4 l(2,1,3)        =    180.000000     0.000000     0.000000   180.000000
	 ---------------------------------------------------------------------------
	Successfully symmetrized geometry.

  ==> Convergence Check <==

  Measures of convergence in internal coordinates in au.
  Criteria marked as inactive (o), active & met (*), and active & unmet ( ).
  --------------------------------------------------------------------------------------------- ~
   Step     Total Energy     Delta E     MAX Force     RMS Force      MAX Disp      RMS Disp    ~
  --------------------------------------------------------------------------------------------- ~
    Convergence Criteria    1.00e-06 *    3.00e-04 *             o    1.20e-03 *             o  ~
  --------------------------------------------------------------------------------------------- ~
      1   -4922.09466970   -4.92e+03      2.53e-03      1.79e-03 o    1.89e-02      1.34e-02 o  ~
  ---------------------------------------------------------------------------------------------

	Writing optimization data to binary file.
	Structure for next step:
	Cartesian Geometry (in Angstrom)
	   CU    -0.0000000000   0.0000000000   0.0000000000
	   CU     0.0000000000   0.0000000000   2.3471731955
	   CU     0.0000000000   0.0000000000  -2.3471731955
			--------------------------
			 OPTKING Finished Execution 
			--------------------------

    Structure for next step:
    Molecular point group: d2h
    Full point group: D_inf_h

    Geometry (in Angstrom), charge = 1, multiplicity = 1:

    CU           0.000000000000     0.000000000000     0.000000000000
    CU           0.000000000000    -0.000000000000     2.347173204721
    CU           0.000000000000    -0.000000000000    -2.347173204721


Scratch directory: /tmp/
gradient() will perform analytic gradient computation.

*** tstart() called on compute227.bc4.acrc.priv
*** at Tue Nov  2 10:31:25 2021

   => Loading Basis Set <=

    Name: DEF2-TZVPPD
    Role: ORBITAL
    Keyword: BASIS
    atoms 1-3 entry CU         line  1290 file /mnt/storage/home/zw18965/.conda/envs/p4env/share/psi4/basis/def2-tzvppd.gbs 

   => MN15-D3(BJ): Empirical Dispersion <=

    Grimme's -D3 (BJ-damping) Dispersion Correction
    Grimme S.; Ehrlich S.; Goerigk L. (2011), J. Comput. Chem., 32: 1456
    Parametrisation from:    L. Goerigk, A. Hansen, C. Bauer, S. Ehrlich, A. Najibi, S. Grimme, Phys. Chem. Chem. Phys. 19, 32184-32215, 2017

        s6 =       1.000000
        s8 =       2.097100
        a1 =       0.786200
        a2 =       7.592300


         ---------------------------------------------------------
                                   SCF
               by Justin Turney, Rob Parrish, Andy Simmonett
                          and Daniel G. A. Smith
                              RKS Reference
                       28 Threads, 114440 MiB Core
         ---------------------------------------------------------

  ==> Geometry <==

    Molecular point group: d2h
    Full point group: D_inf_h

    Geometry (in Angstrom), charge = 1, multiplicity = 1:

       Center              X                  Y                   Z               Mass       
    ------------   -----------------  -----------------  -----------------  -----------------
         CU           0.000000000000     0.000000000000     0.000000000000    62.929597720000
         CU          -0.000000000000     0.000000000000     2.347173204721    62.929597720000
         CU          -0.000000000000     0.000000000000    -2.347173204721    62.929597720000

  Running in d2h symmetry.

  Rotational constants: A = ************  B =      0.02431  C =      0.02431 [cm^-1]
  Rotational constants: A = ************  B =    728.85640  C =    728.85640 [MHz]
  Nuclear repulsion =  474.014905758019211

  Charge       = 1
  Multiplicity = 1
  Electrons    = 86
  Nalpha       = 43
  Nbeta        = 43

  ==> Algorithm <==

  SCF Algorithm Type is DF.
  DIIS enabled.
  MOM disabled.
  Fractional occupation disabled.
  Guess Type is READ.
  Energy threshold   = 1.00e-08
  Density threshold  = 1.00e-08
  Integral threshold = 1.00e-12

  ==> Primary Basis <==

  Basis Set: DEF2-TZVPPD
    Blend: DEF2-TZVPPD
    Number of shells: 57
    Number of basis functions: 201
    Number of Cartesian functions: 249
    Spherical Harmonics?: true
    Max angular momentum: 4

  ==> DFT Potential <==

   => Composite Functional: MN15-D3BJ <= 

   MN15 Hybrid Meta-GGA Exchange-Correlation Functional

    H. S. Yu, X. He, S. L. Li, and D. G. Truhlar, Chem. Sci. 7, 5032-5051, 2016


    Deriv               =              1
    GGA                 =           TRUE
    Meta                =           TRUE

    Exchange Hybrid     =           TRUE
    MP2 Hybrid          =          FALSE

   => Exchange Functionals <=

    1.0000   XC_HYB_MGGA_X_MN15

   => Exact (HF) Exchange <=

    0.4400               HF 

   => Correlation Functionals <=

    1.0000   XC_MGGA_C_MN15

   => LibXC Density Thresholds  <==

    XC_MGGA_C_MN15:  1.00E-15 
    XC_HYB_MGGA_X_MN15:  1.00E-15 

   => Molecular Quadrature <=

    Radial Scheme          =       TREUTLER
    Pruning Scheme         =           NONE
    Nuclear Scheme         =       TREUTLER

    BS radius alpha        =              1
    Pruning alpha          =              1
    Radial Points          =             75
    Spherical Points       =            302
    Total Points           =          65080
    Total Blocks           =            630
    Max Points             =            256
    Max Functions          =            170
    Weights Tolerance      =       1.00E-15

   => Loading Basis Set <=

    Name: (DEF2-TZVPPD AUX)
    Role: JKFIT
    Keyword: DF_BASIS_SCF
    atoms 1-3 entry CU         line  2356 file /mnt/storage/home/zw18965/.conda/envs/p4env/share/psi4/basis/def2-universal-jkfit.gbs 

   => Loading Basis Set <=

    Name: DEF2-TZVPPD
    Role: ORBITAL
    Keyword: BASIS
    atoms 1-3 entry CU         line  1290 file /mnt/storage/home/zw18965/.conda/envs/p4env/share/psi4/basis/def2-tzvppd.gbs 

  Reading orbitals from file /tmp/Cu03C1_LIN.default.27666.180.npy, no projection.

  ==> Integral Setup <==

  DFHelper Memory: AOs need 0.225 GiB; user supplied 83.275 GiB. Using in-core AOs.

  ==> MemDFJK: Density-Fitted J/K Matrices <==

    J tasked:                   Yes
    K tasked:                   Yes
    wK tasked:                   No
    OpenMP threads:              28
    Memory [MiB]:             85273
    Algorithm:                 Core
    Schwarz Cutoff:           1E-12
    Mask sparsity (%):      16.0046
    Fitting Condition:        1E-10

   => Auxiliary Basis Set <=

  Basis Set: (DEF2-TZVPPD AUX)
    Blend: DEF2-UNIVERSAL-JKFIT
    Number of shells: 174
    Number of basis functions: 792
    Number of Cartesian functions: 1131
    Spherical Harmonics?: true
    Max angular momentum: 6

  Cached 100.0% of DFT collocation blocks in 0.544 [GiB].

  Minimum eigenvalue in the overlap matrix is 4.3108406175E-04.
  Reciprocal condition number of the overlap matrix is 1.0093355725E-04.
    Using symmetric orthogonalization.

  ==> Pre-Iterations <==

  SCF Guess: Orbitals guess was supplied from a previous computation.

   -------------------------------------------------------
    Irrep   Nso     Nmo     Nalpha   Nbeta   Ndocc  Nsocc
   -------------------------------------------------------
     Ag        44      44      13      13      13       0
     B1g       14      14       2       2       2       0
     B2g       22      22       4       4       4       0
     B3g       22      22       4       4       4       0
     Au        10      10       1       1       1       0
     B1u       37      37       9       9       9       0
     B2u       26      26       5       5       5       0
     B3u       26      26       5       5       5       0
   -------------------------------------------------------
    Total     201     201      43      43      43       0
   -------------------------------------------------------

  ==> Iterations <==

                           Total Energy        Delta E     RMS |[F,P]|

   @DF-RKS iter   0: -4922.10340824456853   -4.92210e+03   4.96686e-04 
   @DF-RKS iter   1: -4922.09474507069990    8.66317e-03   3.10600e-05 DIIS
   @DF-RKS iter   2: -4922.09474167423650    3.39646e-06   7.36814e-05 DIIS
   @DF-RKS iter   3: -4922.09474601111560   -4.33688e-06   5.04834e-06 DIIS
   @DF-RKS iter   4: -4922.09474604047591   -2.93603e-08   3.51087e-06 DIIS
   @DF-RKS iter   5: -4922.09474605103151   -1.05556e-08   5.63033e-07 DIIS
   @DF-RKS iter   6: -4922.09474605216747   -1.13596e-09   1.72490e-07 DIIS
   @DF-RKS iter   7: -4922.09474605228661   -1.19144e-10   3.87933e-08 DIIS
   @DF-RKS iter   8: -4922.09474605231117   -2.45564e-11   1.35712e-08 DIIS
   @DF-RKS iter   9: -4922.09474605231298   -1.81899e-12   3.36944e-09 DIIS
  Energy and wave function converged.


  ==> Post-Iterations <==

   Electrons on quadrature grid:
      Ntotal   =   85.9999842522 ; deviation = -1.575e-05 

    Orbital Energies [Eh]
    ---------------------

    Doubly Occupied:                                                      

       1B1u -320.905865     1Ag  -320.905860     2Ag  -320.866433  
       2B1u  -38.069137     3Ag   -38.069051     4Ag   -38.038077  
       5Ag   -33.921675     3B1u  -33.921671     1B2g  -33.920043  
       1B3g  -33.920043     1B3u  -33.920039     1B2u  -33.920039  
       4B1u  -33.891174     2B2u  -33.886245     2B3u  -33.886245  
       5B1u   -4.292908     6Ag    -4.292854     7Ag    -4.257338  
       6B1u   -2.966164     8Ag    -2.965966     3B3u   -2.963728  
       3B2u   -2.963728     2B2g   -2.963720     2B3g   -2.963720  
       7B1u   -2.930742     4B2u   -2.924401     4B3u   -2.924401  
       9Ag    -0.559709     3B3g   -0.544233     3B2g   -0.544233  
       8B1u   -0.537758     5B2u   -0.536564     5B3u   -0.536564  
      10Ag    -0.534281     1B1g   -0.534278     9B1u   -0.533810  
       1Au    -0.533808    11Ag    -0.491632     2B1g   -0.491630  
       4B3g   -0.488190     4B2g   -0.488190    12Ag    -0.486491  
      13Ag    -0.427568  

    Virtual:                                                              

      10B1u   -0.304716    14Ag    -0.192173     6B2u   -0.175342  
       6B3u   -0.175342    11B1u   -0.124107     5B2g   -0.113180  
       5B3g   -0.113180     7B3u   -0.032879     7B2u   -0.032879  
      12B1u   -0.021334    15Ag    -0.021119    16Ag    -0.009305  
       8B2u    0.021358     8B3u    0.021358     6B3g    0.038928  
       6B2g    0.038928    13B1u    0.041225    17Ag     0.041407  
       3B1g    0.041412    18Ag     0.083808     9B2u    0.087871  
       9B3u    0.087871    14B1u    0.092719     2Au     0.092722  
      19Ag     0.113352     7B3g    0.125914     7B2g    0.125914  
      15B1u    0.156766    20Ag     0.180573     4B1g    0.180575  
      16B1u    0.195860    10B2u    0.234738    10B3u    0.234738  
      21Ag     0.257155     8B3g    0.337714     8B2g    0.337714  
      22Ag     0.377020    17B1u    0.418513    18B1u    0.472433  
      11B3u    0.535437    11B2u    0.535437     9B2g    0.558112  
       9B3g    0.558112    12B3u    0.621205    12B2u    0.621205  
      23Ag     0.639455     5B1g    0.725421    24Ag     0.725461  
       3Au     0.759679    19B1u    0.759708    10B2g    0.760216  
      10B3g    0.760216    20B1u    0.773175    25Ag     0.800325  
      13B2u    0.812557    13B3u    0.812557     6B1g    0.831335  
      26Ag     0.831383    11B3g    0.998236    11B2g    0.998236  
      21B1u    1.020713    27Ag     1.303194    14B3u    2.759677  
      14B2u    2.759677    28Ag     2.823612    12B2g    2.844006  
      12B3g    2.844006    22B1u    2.859513    15B3u    2.883889  
      15B2u    2.883889    23B1u    2.884766    29Ag     2.994318  
      30Ag     3.163629    24B1u    3.187788    13B3g    3.189654  
      13B2g    3.189654    16B2u    3.196732    16B3u    3.196732  
       4Au     3.199559    25B1u    3.199614     7B1g    3.200354  
      31Ag     3.200408    17B2u    3.202285    17B3u    3.202285  
      14B3g    3.202285    14B2g    3.202285    18B2u    3.236054  
      18B3u    3.236054     5Au     3.246342    26B1u    3.246433  
      19B3u    3.255573    19B2u    3.255573    27B1u    3.265013  
      32Ag     3.352696     8B1g    3.402971    33Ag     3.403010  
       6Au     3.419979    28B1u    3.420011    15B3g    3.450500  
      15B2g    3.450500     9B1g    3.484041    34Ag     3.484101  
      29B1u    3.488968    20B2u    3.521666    20B3u    3.521666  
      16B3g    3.624612    16B2g    3.624612    35Ag     3.728411  
      30B1u    3.829750    36Ag     4.178159    21B3u   12.496649  
      21B2u   12.496649    17B2g   12.497247    17B3g   12.497247  
       7Au    12.497270    10B1g   12.497308    31B1u   12.497355  
      37Ag    12.497393    32B1u   12.497597    38Ag    12.498045  
      22B2u   12.498283    22B3u   12.498283    18B3g   12.498284  
      18B2g   12.498284    33B1u   12.499169    39Ag    12.499169  
      11B1g   12.499291     8Au    12.499291    19B3g   12.535999  
      19B2g   12.535999    12B1g   12.537245    40Ag    12.537401  
      41Ag    12.538437    20B2g   12.540211    20B3g   12.540211  
      42Ag    12.543815    13B1g   12.543984     9Au    12.661139  
      34B1u   12.661269    23B2u   12.661840    23B3u   12.661840  
      21B3g   12.661847    21B2g   12.661847    24B2u   12.661917  
      24B3u   12.661917    14B1g   12.661928    43Ag    12.662058  
      22B3g   12.672629    22B2g   12.672629    35B1u   12.675654  
      10Au    12.697444    36B1u   12.697635    25B2u   12.699652  
      25B3u   12.699652    26B3u   12.707518    26B2u   12.707518  
      44Ag    12.733899    37B1u   12.780854  

    Final Occupation by Irrep:
             Ag   B1g   B2g   B3g    Au   B1u   B2u   B3u 
    DOCC [    13,    2,    4,    4,    1,    9,    5,    5 ]

  @DF-RKS Final Energy: -4922.09474605231298

   => Energetics <=

    Nuclear Repulsion Energy =            474.0149057580192107
    One-Electron Energy =               -7792.5737122843793259
    Two-Electron Energy =                2512.1595487918766594
    DFT Exchange-Correlation Energy =    -115.6953948378290846
    Empirical Dispersion Energy =          -0.0000934800000000
    VV10 Nonlocal Energy =                  0.0000000000000000
    Total Energy =                      -4922.0947460523120753

Computation Completed


Properties will be evaluated at   0.000000,   0.000000,   0.000000 [a0]

Properties computed using the SCF density matrix

  Nuclear Dipole Moment: [e a0]
     X:     0.0000      Y:    -0.0000      Z:    -0.0000

  Electronic Dipole Moment: [e a0]
     X:     0.0000      Y:     0.0000      Z:     0.0000

  Dipole Moment: [e a0]
     X:     0.0000      Y:    -0.0000      Z:    -0.0000     Total:     0.0000

  Dipole Moment: [D]
     X:     0.0000      Y:    -0.0000      Z:    -0.0000     Total:     0.0000


*** tstop() called on compute227.bc4.acrc.priv at Tue Nov  2 10:31:28 2021
Module time:
	user time   =      52.64 seconds =       0.88 minutes
	system time =       1.68 seconds =       0.03 minutes
	total time  =          3 seconds =       0.05 minutes
Total time:
	user time   =     194.60 seconds =       3.24 minutes
	system time =      11.05 seconds =       0.18 minutes
	total time  =         27 seconds =       0.45 minutes

*** tstart() called on compute227.bc4.acrc.priv
*** at Tue Nov  2 10:31:28 2021


         ------------------------------------------------------------
                                   SCF GRAD                          
                          Rob Parrish, Justin Turney,                
                       Andy Simmonett, and Alex Sokolov              
         ------------------------------------------------------------

  ==> Geometry <==

    Molecular point group: d2h
    Full point group: D_inf_h

    Geometry (in Angstrom), charge = 1, multiplicity = 1:

       Center              X                  Y                   Z               Mass       
    ------------   -----------------  -----------------  -----------------  -----------------
         CU           0.000000000000    -0.000000000000     0.000000000000    62.929597720000
         CU           0.000000000000     0.000000000000     2.347173204721    62.929597720000
         CU           0.000000000000     0.000000000000    -2.347173204721    62.929597720000

  Nuclear repulsion =  474.014905758019211

  ==> Basis Set <==

  Basis Set: DEF2-TZVPPD
    Blend: DEF2-TZVPPD
    Number of shells: 57
    Number of basis functions: 201
    Number of Cartesian functions: 249
    Spherical Harmonics?: true
    Max angular momentum: 4

  ==> DFJKGrad: Density-Fitted SCF Gradients <==

    Gradient:                    1
    J tasked:                  Yes
    K tasked:                  Yes
    wK tasked:                  No
    OpenMP threads:             28
    Integrals threads:          28
    Memory [MiB]:            85830
    Schwarz Cutoff:          1E-12
    Fitting Condition:       1E-10

   => Auxiliary Basis Set <=

  Basis Set: (DEF2-TZVPPD AUX)
    Blend: DEF2-UNIVERSAL-JKFIT
    Number of shells: 174
    Number of basis functions: 792
    Number of Cartesian functions: 1131
    Spherical Harmonics?: true
    Max angular momentum: 6

  ==> DFT Potential <==

   => Composite Functional: MN15-D3BJ <= 

   MN15 Hybrid Meta-GGA Exchange-Correlation Functional

    H. S. Yu, X. He, S. L. Li, and D. G. Truhlar, Chem. Sci. 7, 5032-5051, 2016


    Deriv               =              1
    GGA                 =           TRUE
    Meta                =           TRUE

    Exchange Hybrid     =           TRUE
    MP2 Hybrid          =          FALSE

   => Exchange Functionals <=

    1.0000   XC_HYB_MGGA_X_MN15

   => Exact (HF) Exchange <=

    0.4400               HF 

   => Correlation Functionals <=

    1.0000   XC_MGGA_C_MN15

   => LibXC Density Thresholds  <==

    XC_MGGA_C_MN15:  1.00E-15 
    XC_HYB_MGGA_X_MN15:  1.00E-15 

   => Molecular Quadrature <=

    Radial Scheme          =       TREUTLER
    Pruning Scheme         =           NONE
    Nuclear Scheme         =       TREUTLER

    BS radius alpha        =              1
    Pruning alpha          =              1
    Radial Points          =             75
    Spherical Points       =            302
    Total Points           =          65080
    Total Blocks           =            630
    Max Points             =            256
    Max Functions          =            170
    Weights Tolerance      =       1.00E-15


  -Total Gradient:
     Atom            X                  Y                   Z
    ------   -----------------  -----------------  -----------------
       1       -0.000000000000    -0.000000000000     0.000000000000
       2        0.000000000000     0.000000000000    -0.001551729068
       3        0.000000000000     0.000000000000     0.001551729068


*** tstop() called on compute227.bc4.acrc.priv at Tue Nov  2 10:31:43 2021
Module time:
	user time   =      60.46 seconds =       1.01 minutes
	system time =       1.35 seconds =       0.02 minutes
	total time  =         15 seconds =       0.25 minutes
Total time:
	user time   =     258.07 seconds =       4.30 minutes
	system time =      12.56 seconds =       0.21 minutes
	total time  =         42 seconds =       0.70 minutes

			-----------------------------------------
			 OPTKING 2.0: for geometry optimizations 
			  - R.A. King,  Bethel University        
			-----------------------------------------
	At level 1: Red. Int., RFO, no backsteps, dynamic trust

	Previous internal coordinate definitions found.
	---Fragment 1 Geometry and Gradient---
	 CU          0.0000000000       -0.0000000000        0.0000000000
	 CU          0.0000000000        0.0000000000        4.4355145259
	 CU          0.0000000000        0.0000000000       -4.4355145259
	            -0.0000000000       -0.0000000000        0.0000000000
	             0.0000000000        0.0000000000       -0.0015517291
	             0.0000000000        0.0000000000        0.0015517291

	---Fragment 1 Intrafragment Coordinates---
	 - Coordinate -           - BOHR/RAD -       - ANG/DEG -
	 R(1,2)           =         4.435515	       2.347173
	 R(1,3)           =         4.435515	       2.347173
	 L(2,1,3)         =         3.141593	     180.000000
	 l(2,1,3)         =         3.141593	     180.000000

	Current energy   :     -4922.0947460523

	Energy change for the previous step:
		Projected    :         0.0002616821
		Actual       :        -0.0000763507

	Performing BFGS update.
	Previous computed or guess Hessian on step 1.
	Steps to be used in Hessian update: 1
	Taking RFO optimization step.
	Going to follow RFO solution 1.
	Using RFO vector 1.
	Norm of target step-size    0.04221
	Projected energy change by RFO approximation:         0.0005362666

	Back-transformation to cartesian coordinates...
	Successfully converged to displaced geometry.

	--- Internal Coordinate Step in ANG or DEG, aJ/ANG or AJ/DEG ---
	 ---------------------------------------------------------------------------
	   Coordinate                Previous        Force       Change         New 
	   ----------                --------       ------       ------       ------
	    1 R(1,2)          =      2.347173     0.012784     0.015793     2.362967
	    2 R(1,3)          =      2.347173     0.012784     0.015793     2.362967
	    3 L(2,1,3)        =    180.000000     0.000000     0.000000   180.000000
	    4 l(2,1,3)        =    180.000000     0.000000     0.000000   180.000000
	 ---------------------------------------------------------------------------
	Successfully symmetrized geometry.

  ==> Convergence Check <==

  Measures of convergence in internal coordinates in au.
  Criteria marked as inactive (o), active & met (*), and active & unmet ( ).
  ---------------------------------------------------------------------------------------------
   Step     Total Energy     Delta E     MAX Force     RMS Force      MAX Disp      RMS Disp   
  ---------------------------------------------------------------------------------------------
    Convergence Criteria    1.00e-06 *    3.00e-04 *             o    1.20e-03 *             o
  ---------------------------------------------------------------------------------------------
      2   -4922.09474605   -7.64e-05      1.55e-03      1.10e-03 o    2.98e-02      2.11e-02 o  ~
  ---------------------------------------------------------------------------------------------

	Writing optimization data to binary file.
	Structure for next step:
	Cartesian Geometry (in Angstrom)
	   CU     0.0000000000  -0.0000000000   0.0000000000
	   CU     0.0000000000   0.0000000000   2.3629665932
	   CU     0.0000000000   0.0000000000  -2.3629665932
			--------------------------
			 OPTKING Finished Execution 
			--------------------------

    Structure for next step:
    Molecular point group: d2h
    Full point group: D_inf_h

    Geometry (in Angstrom), charge = 1, multiplicity = 1:

    CU          -0.000000000000     0.000000000000     0.000000000000
    CU           0.000000000000     0.000000000000     2.362966602477
    CU           0.000000000000     0.000000000000    -2.362966602477


Scratch directory: /tmp/
gradient() will perform analytic gradient computation.

*** tstart() called on compute227.bc4.acrc.priv
*** at Tue Nov  2 10:31:43 2021

   => Loading Basis Set <=

    Name: DEF2-TZVPPD
    Role: ORBITAL
    Keyword: BASIS
    atoms 1-3 entry CU         line  1290 file /mnt/storage/home/zw18965/.conda/envs/p4env/share/psi4/basis/def2-tzvppd.gbs 

   => MN15-D3(BJ): Empirical Dispersion <=

    Grimme's -D3 (BJ-damping) Dispersion Correction
    Grimme S.; Ehrlich S.; Goerigk L. (2011), J. Comput. Chem., 32: 1456
    Parametrisation from:    L. Goerigk, A. Hansen, C. Bauer, S. Ehrlich, A. Najibi, S. Grimme, Phys. Chem. Chem. Phys. 19, 32184-32215, 2017

        s6 =       1.000000
        s8 =       2.097100
        a1 =       0.786200
        a2 =       7.592300


         ---------------------------------------------------------
                                   SCF
               by Justin Turney, Rob Parrish, Andy Simmonett
                          and Daniel G. A. Smith
                              RKS Reference
                       28 Threads, 114440 MiB Core
         ---------------------------------------------------------

  ==> Geometry <==

    Molecular point group: d2h
    Full point group: D_inf_h

    Geometry (in Angstrom), charge = 1, multiplicity = 1:

       Center              X                  Y                   Z               Mass       
    ------------   -----------------  -----------------  -----------------  -----------------
         CU           0.000000000000     0.000000000000     0.000000000000    62.929597720000
         CU           0.000000000000    -0.000000000000     2.362966602477    62.929597720000
         CU           0.000000000000    -0.000000000000    -2.362966602477    62.929597720000

  Running in d2h symmetry.

  Rotational constants: A = ************  B =      0.02399  C =      0.02399 [cm^-1]
  Rotational constants: A = ************  B =    719.14602  C =    719.14602 [MHz]
  Nuclear repulsion =  470.846724734721420

  Charge       = 1
  Multiplicity = 1
  Electrons    = 86
  Nalpha       = 43
  Nbeta        = 43

  ==> Algorithm <==

  SCF Algorithm Type is DF.
  DIIS enabled.
  MOM disabled.
  Fractional occupation disabled.
  Guess Type is READ.
  Energy threshold   = 1.00e-08
  Density threshold  = 1.00e-08
  Integral threshold = 1.00e-12

  ==> Primary Basis <==

  Basis Set: DEF2-TZVPPD
    Blend: DEF2-TZVPPD
    Number of shells: 57
    Number of basis functions: 201
    Number of Cartesian functions: 249
    Spherical Harmonics?: true
    Max angular momentum: 4

  ==> DFT Potential <==

   => Composite Functional: MN15-D3BJ <= 

   MN15 Hybrid Meta-GGA Exchange-Correlation Functional

    H. S. Yu, X. He, S. L. Li, and D. G. Truhlar, Chem. Sci. 7, 5032-5051, 2016


    Deriv               =              1
    GGA                 =           TRUE
    Meta                =           TRUE

    Exchange Hybrid     =           TRUE
    MP2 Hybrid          =          FALSE

   => Exchange Functionals <=

    1.0000   XC_HYB_MGGA_X_MN15

   => Exact (HF) Exchange <=

    0.4400               HF 

   => Correlation Functionals <=

    1.0000   XC_MGGA_C_MN15

   => LibXC Density Thresholds  <==

    XC_MGGA_C_MN15:  1.00E-15 
    XC_HYB_MGGA_X_MN15:  1.00E-15 

   => Molecular Quadrature <=

    Radial Scheme          =       TREUTLER
    Pruning Scheme         =           NONE
    Nuclear Scheme         =       TREUTLER

    BS radius alpha        =              1
    Pruning alpha          =              1
    Radial Points          =             75
    Spherical Points       =            302
    Total Points           =          65082
    Total Blocks           =            630
    Max Points             =            255
    Max Functions          =            170
    Weights Tolerance      =       1.00E-15

   => Loading Basis Set <=

    Name: (DEF2-TZVPPD AUX)
    Role: JKFIT
    Keyword: DF_BASIS_SCF
    atoms 1-3 entry CU         line  2356 file /mnt/storage/home/zw18965/.conda/envs/p4env/share/psi4/basis/def2-universal-jkfit.gbs 

   => Loading Basis Set <=

    Name: DEF2-TZVPPD
    Role: ORBITAL
    Keyword: BASIS
    atoms 1-3 entry CU         line  1290 file /mnt/storage/home/zw18965/.conda/envs/p4env/share/psi4/basis/def2-tzvppd.gbs 

  Reading orbitals from file /tmp/Cu03C1_LIN.default.27666.180.npy, no projection.

  ==> Integral Setup <==

  DFHelper Memory: AOs need 0.225 GiB; user supplied 83.277 GiB. Using in-core AOs.

  ==> MemDFJK: Density-Fitted J/K Matrices <==

    J tasked:                   Yes
    K tasked:                   Yes
    wK tasked:                   No
    OpenMP threads:              28
    Memory [MiB]:             85275
    Algorithm:                 Core
    Schwarz Cutoff:           1E-12
    Mask sparsity (%):      16.1234
    Fitting Condition:        1E-10

   => Auxiliary Basis Set <=

  Basis Set: (DEF2-TZVPPD AUX)
    Blend: DEF2-UNIVERSAL-JKFIT
    Number of shells: 174
    Number of basis functions: 792
    Number of Cartesian functions: 1131
    Spherical Harmonics?: true
    Max angular momentum: 6

  Cached 100.0% of DFT collocation blocks in 0.542 [GiB].

  Minimum eigenvalue in the overlap matrix is 4.3989556192E-04.
  Reciprocal condition number of the overlap matrix is 1.0331478048E-04.
    Using symmetric orthogonalization.

  ==> Pre-Iterations <==

  SCF Guess: Orbitals guess was supplied from a previous computation.

   -------------------------------------------------------
    Irrep   Nso     Nmo     Nalpha   Nbeta   Ndocc  Nsocc
   -------------------------------------------------------
     Ag        44      44      13      13      13       0
     B1g       14      14       2       2       2       0
     B2g       22      22       4       4       4       0
     B3g       22      22       4       4       4       0
     Au        10      10       1       1       1       0
     B1u       37      37       9       9       9       0
     B2u       26      26       5       5       5       0
     B3u       26      26       5       5       5       0
   -------------------------------------------------------
    Total     201     201      43      43      43       0
   -------------------------------------------------------

  ==> Iterations <==

                           Total Energy        Delta E     RMS |[F,P]|

   @DF-RKS iter   0: -4922.10805665807402   -4.92211e+03   7.67214e-04 
   @DF-RKS iter   1: -4922.09479136719983    1.32653e-02   4.59797e-05 DIIS
   @DF-RKS iter   2: -4922.09478433607819    7.03112e-06   1.07355e-04 DIIS
   @DF-RKS iter   3: -4922.09479349691355   -9.16084e-06   8.11867e-06 DIIS
   @DF-RKS iter   4: -4922.09479357395503   -7.70415e-08   5.48405e-06 DIIS
   @DF-RKS iter   5: -4922.09479359968554   -2.57305e-08   8.45092e-07 DIIS
   @DF-RKS iter   6: -4922.09479360243495   -2.74940e-09   2.83238e-07 DIIS
   @DF-RKS iter   7: -4922.09479360273053   -2.95586e-10   6.03279e-08 DIIS
   @DF-RKS iter   8: -4922.09479360277783   -4.72937e-11   2.09720e-08 DIIS
   @DF-RKS iter   9: -4922.09479360278692   -9.09495e-12   5.44518e-09 DIIS
  Energy and wave function converged.


  ==> Post-Iterations <==

   Electrons on quadrature grid:
      Ntotal   =   85.9999815652 ; deviation = -1.843e-05 

    Orbital Energies [Eh]
    ---------------------

    Doubly Occupied:                                                      

       1B1u -320.905298     1Ag  -320.905292     2Ag  -320.865368  
       2B1u  -38.068506     3Ag   -38.068423     4Ag   -38.036897  
       5Ag   -33.921042     3B1u  -33.921038     1B2g  -33.919437  
       1B3g  -33.919437     1B3u  -33.919434     1B2u  -33.919434  
       4B1u  -33.889990     2B3u  -33.885109     2B2u  -33.885109  
       5B1u   -4.292291     6Ag    -4.292237     7Ag    -4.256176  
       6B1u   -2.965438     8Ag    -2.965268     3B3u   -2.963164  
       3B2u   -2.963164     2B2g   -2.963156     2B3g   -2.963156  
       7B1u   -2.929464     4B3u   -2.923339     4B2u   -2.923339  
       9Ag    -0.557925     3B2g   -0.543031     3B3g   -0.543031  
       8B1u   -0.537019     5B3u   -0.535865     5B2u   -0.535865  
      10Ag    -0.533708     1B1g   -0.533705     9B1u   -0.533273  
       1Au    -0.533271    11Ag    -0.490645     2B1g   -0.490643  
       4B2g   -0.487539     4B3g   -0.487539    12Ag    -0.486030  
      13Ag    -0.426443  

    Virtual:                                                              

      10B1u   -0.304484    14Ag    -0.192598     6B3u   -0.174630  
       6B2u   -0.174630    11B1u   -0.124549     5B3g   -0.113237  
       5B2g   -0.113237     7B3u   -0.033443     7B2u   -0.033443  
      15Ag    -0.021263    12B1u   -0.021172    16Ag    -0.008976  
       8B3u    0.021586     8B2u    0.021586     6B2g    0.039058  
       6B3g    0.039058    13B1u    0.041241    17Ag     0.041721  
       3B1g    0.041726    18Ag     0.082133     9B2u    0.087708  
       9B3u    0.087708    14B1u    0.092663     2Au     0.092665  
      19Ag     0.112710     7B3g    0.125025     7B2g    0.125025  
      15B1u    0.157106    20Ag     0.179970     4B1g    0.179971  
      16B1u    0.194808    10B3u    0.233488    10B2u    0.233488  
      21Ag     0.257590     8B3g    0.336265     8B2g    0.336265  
      22Ag     0.375964    17B1u    0.415463    18B1u    0.472465  
      11B3u    0.537335    11B2u    0.537335     9B2g    0.559279  
       9B3g    0.559279    12B3u    0.620654    12B2u    0.620654  
      23Ag     0.638086     5B1g    0.727211    24Ag     0.727252  
      10B3g    0.758145    10B2g    0.758145     3Au     0.760000  
      19B1u    0.760029    20B1u    0.773102    25Ag     0.797005  
      13B3u    0.812180    13B2u    0.812180     6B1g    0.830767  
      26Ag     0.830815    11B3g    0.994769    11B2g    0.994769  
      21B1u    1.014559    27Ag     1.295899    14B3u    2.760737  
      14B2u    2.760737    28Ag     2.821850    12B2g    2.842503  
      12B3g    2.842503    22B1u    2.860011    23B1u    2.882867  
      15B2u    2.884413    15B3u    2.884413    29Ag     2.992296  
      30Ag     3.162474    24B1u    3.184603    13B3g    3.191291  
      13B2g    3.191291    16B2u    3.198655    16B3u    3.198655  
       4Au     3.200198    25B1u    3.200257     7B1g    3.201020  
      31Ag     3.201078    17B2u    3.202744    17B3u    3.202744  
      14B3g    3.202745    14B2g    3.202745    18B2u    3.234906  
      18B3u    3.234906     5Au     3.247703    26B1u    3.247799  
      19B2u    3.256477    19B3u    3.256477    27B1u    3.266824  
      32Ag     3.349740     8B1g    3.403757    33Ag     3.403808  
       6Au     3.420084    28B1u    3.420126    15B3g    3.447460  
      15B2g    3.447460    29B1u    3.477876     9B1g    3.484246  
      34Ag     3.484317    20B2u    3.518832    20B3u    3.518832  
      16B3g    3.622878    16B2g    3.622878    35Ag     3.719707  
      30B1u    3.820127    36Ag     4.167149    21B3u   12.497277  
      21B2u   12.497277    17B2g   12.497833    17B3g   12.497833  
       7Au    12.497873    10B1g   12.497907    31B1u   12.497976  
      37Ag    12.498010    32B1u   12.498216    38Ag    12.498642  
      22B3u   12.498855    22B2u   12.498855    18B2g   12.498856  
      18B3g   12.498856    33B1u   12.499690    39Ag    12.499690  
      11B1g   12.499806     8Au    12.499806    19B3g   12.537149  
      19B2g   12.537149    12B1g   12.538382    40Ag    12.538567  
      41Ag    12.539524    20B2g   12.541288    20B3g   12.541288  
      42Ag    12.544784    13B1g   12.544945     9Au    12.661762  
      34B1u   12.661890    23B2u   12.662389    23B3u   12.662389  
      21B3g   12.662392    21B2g   12.662392    14B1g   12.662507  
      24B3u   12.662608    24B2u   12.662608    43Ag    12.662634  
      22B2g   12.672500    22B3g   12.672500    35B1u   12.676889  
      10Au    12.698588    36B1u   12.698775    25B2u   12.700686  
      25B3u   12.700686    26B3u   12.707759    26B2u   12.707759  
      44Ag    12.730102    37B1u   12.776224  

    Final Occupation by Irrep:
             Ag   B1g   B2g   B3g    Au   B1u   B2u   B3u 
    DOCC [    13,    2,    4,    4,    1,    9,    5,    5 ]

  @DF-RKS Final Energy: -4922.09479360278692

   => Energetics <=

    Nuclear Repulsion Energy =            470.8467247347214197
    One-Electron Energy =               -7786.3082587532835532
    Two-Electron Energy =                2509.0606113149660814
    DFT Exchange-Correlation Energy =    -115.6937773491909525
    Empirical Dispersion Energy =          -0.0000935500000000
    VV10 Nonlocal Energy =                  0.0000000000000000
    Total Energy =                      -4922.0947936027869218

Computation Completed


Properties will be evaluated at   0.000000,   0.000000,   0.000000 [a0]

Properties computed using the SCF density matrix

  Nuclear Dipole Moment: [e a0]
     X:    -0.0000      Y:     0.0000      Z:    -0.0000

  Electronic Dipole Moment: [e a0]
     X:     0.0000      Y:     0.0000      Z:     0.0000

  Dipole Moment: [e a0]
     X:    -0.0000      Y:     0.0000      Z:    -0.0000     Total:     0.0000

  Dipole Moment: [D]
     X:    -0.0000      Y:     0.0000      Z:    -0.0000     Total:     0.0000


*** tstop() called on compute227.bc4.acrc.priv at Tue Nov  2 10:31:46 2021
Module time:
	user time   =      52.38 seconds =       0.87 minutes
	system time =       1.63 seconds =       0.03 minutes
	total time  =          3 seconds =       0.05 minutes
Total time:
	user time   =     310.89 seconds =       5.18 minutes
	system time =      14.20 seconds =       0.24 minutes
	total time  =         45 seconds =       0.75 minutes

*** tstart() called on compute227.bc4.acrc.priv
*** at Tue Nov  2 10:31:46 2021


         ------------------------------------------------------------
                                   SCF GRAD                          
                          Rob Parrish, Justin Turney,                
                       Andy Simmonett, and Alex Sokolov              
         ------------------------------------------------------------

  ==> Geometry <==

    Molecular point group: d2h
    Full point group: D_inf_h

    Geometry (in Angstrom), charge = 1, multiplicity = 1:

       Center              X                  Y                   Z               Mass       
    ------------   -----------------  -----------------  -----------------  -----------------
         CU           0.000000000000     0.000000000000     0.000000000000    62.929597720000
         CU          -0.000000000000     0.000000000000     2.362966602477    62.929597720000
         CU          -0.000000000000     0.000000000000    -2.362966602477    62.929597720000

  Nuclear repulsion =  470.846724734721420

  ==> Basis Set <==

  Basis Set: DEF2-TZVPPD
    Blend: DEF2-TZVPPD
    Number of shells: 57
    Number of basis functions: 201
    Number of Cartesian functions: 249
    Spherical Harmonics?: true
    Max angular momentum: 4

  ==> DFJKGrad: Density-Fitted SCF Gradients <==

    Gradient:                    1
    J tasked:                  Yes
    K tasked:                  Yes
    wK tasked:                  No
    OpenMP threads:             28
    Integrals threads:          28
    Memory [MiB]:            85830
    Schwarz Cutoff:          1E-12
    Fitting Condition:       1E-10

   => Auxiliary Basis Set <=

  Basis Set: (DEF2-TZVPPD AUX)
    Blend: DEF2-UNIVERSAL-JKFIT
    Number of shells: 174
    Number of basis functions: 792
    Number of Cartesian functions: 1131
    Spherical Harmonics?: true
    Max angular momentum: 6

  ==> DFT Potential <==

   => Composite Functional: MN15-D3BJ <= 

   MN15 Hybrid Meta-GGA Exchange-Correlation Functional

    H. S. Yu, X. He, S. L. Li, and D. G. Truhlar, Chem. Sci. 7, 5032-5051, 2016


    Deriv               =              1
    GGA                 =           TRUE
    Meta                =           TRUE

    Exchange Hybrid     =           TRUE
    MP2 Hybrid          =          FALSE

   => Exchange Functionals <=

    1.0000   XC_HYB_MGGA_X_MN15

   => Exact (HF) Exchange <=

    0.4400               HF 

   => Correlation Functionals <=

    1.0000   XC_MGGA_C_MN15

   => LibXC Density Thresholds  <==

    XC_MGGA_C_MN15:  1.00E-15 
    XC_HYB_MGGA_X_MN15:  1.00E-15 

   => Molecular Quadrature <=

    Radial Scheme          =       TREUTLER
    Pruning Scheme         =           NONE
    Nuclear Scheme         =       TREUTLER

    BS radius alpha        =              1
    Pruning alpha          =              1
    Radial Points          =             75
    Spherical Points       =            302
    Total Points           =          65082
    Total Blocks           =            630
    Max Points             =            255
    Max Functions          =            170
    Weights Tolerance      =       1.00E-15


  -Total Gradient:
     Atom            X                  Y                   Z
    ------   -----------------  -----------------  -----------------
       1        0.000000000000     0.000000000000     0.000000000000
       2        0.000000000000    -0.000000000000    -0.000084131064
       3       -0.000000000000    -0.000000000000     0.000084131064


*** tstop() called on compute227.bc4.acrc.priv at Tue Nov  2 10:32:02 2021
Module time:
	user time   =      60.35 seconds =       1.01 minutes
	system time =       1.42 seconds =       0.02 minutes
	total time  =         16 seconds =       0.27 minutes
Total time:
	user time   =     374.20 seconds =       6.24 minutes
	system time =      15.79 seconds =       0.26 minutes
	total time  =         61 seconds =       1.02 minutes

			-----------------------------------------
			 OPTKING 2.0: for geometry optimizations 
			  - R.A. King,  Bethel University        
			-----------------------------------------
	At level 1: Red. Int., RFO, no backsteps, dynamic trust

	Previous internal coordinate definitions found.
	---Fragment 1 Geometry and Gradient---
	 CU          0.0000000000        0.0000000000        0.0000000000
	 CU         -0.0000000000        0.0000000000        4.4653597223
	 CU         -0.0000000000        0.0000000000       -4.4653597223
	             0.0000000000        0.0000000000        0.0000000000
	             0.0000000000       -0.0000000000       -0.0000841311
	            -0.0000000000       -0.0000000000        0.0000841311

	---Fragment 1 Intrafragment Coordinates---
	 - Coordinate -           - BOHR/RAD -       - ANG/DEG -
	 R(1,2)           =         4.465360	       2.362967
	 R(1,3)           =         4.465360	       2.362967
	 L(2,1,3)         =         3.141593	     180.000000
	 l(2,1,3)         =         3.141593	     180.000000

	Current energy   :     -4922.0947936028

	Energy change for the previous step:
		Projected    :         0.0005362666
		Actual       :        -0.0000475505

	Performing BFGS update.
	Previous computed or guess Hessian on step 1.
	Steps to be used in Hessian update: 2 1
	Taking RFO optimization step.
	Going to follow RFO solution 1.
	Using RFO vector 1.
	Norm of target step-size    0.00237
	Projected energy change by RFO approximation:        -0.0000022654

	Back-transformation to cartesian coordinates...
	Successfully converged to displaced geometry.

	--- Internal Coordinate Step in ANG or DEG, aJ/ANG or AJ/DEG ---
	 ---------------------------------------------------------------------------
	   Coordinate                Previous        Force       Change         New 
	   ----------                --------       ------       ------       ------
	    1 R(1,2)          =      2.362967     0.000693     0.000886     2.363853
	    2 R(1,3)          =      2.362967     0.000693     0.000886     2.363853
	    3 L(2,1,3)        =    180.000000    -0.000000     0.000000   180.000000
	    4 l(2,1,3)        =    180.000000    -0.000000     0.000000   180.000000
	 ---------------------------------------------------------------------------
	Successfully symmetrized geometry.

  ==> Convergence Check <==

  Measures of convergence in internal coordinates in au.
  Criteria marked as inactive (o), active & met (*), and active & unmet ( ).
  ---------------------------------------------------------------------------------------------
   Step     Total Energy     Delta E     MAX Force     RMS Force      MAX Disp      RMS Disp   
  ---------------------------------------------------------------------------------------------
    Convergence Criteria    1.00e-06 *    3.00e-04 *             o    1.20e-03 *             o
  ---------------------------------------------------------------------------------------------
      3   -4922.09479360   -4.76e-05      8.41e-05 *    5.95e-05 o    1.67e-03      1.18e-03 o  ~
  ---------------------------------------------------------------------------------------------

	Writing optimization data to binary file.
	Structure for next step:
	Cartesian Geometry (in Angstrom)
	   CU     0.0000000000   0.0000000000   0.0000000000
	   CU     0.0000000000  -0.0000000000   2.3638528951
	   CU     0.0000000000  -0.0000000000  -2.3638528951
			--------------------------
			 OPTKING Finished Execution 
			--------------------------

    Structure for next step:
    Molecular point group: d2h
    Full point group: D_inf_h

    Geometry (in Angstrom), charge = 1, multiplicity = 1:

    CU           0.000000000000     0.000000000000     0.000000000000
    CU          -0.000000000000     0.000000000000     2.363852904423
    CU          -0.000000000000     0.000000000000    -2.363852904423


Scratch directory: /tmp/
gradient() will perform analytic gradient computation.

*** tstart() called on compute227.bc4.acrc.priv
*** at Tue Nov  2 10:32:02 2021

   => Loading Basis Set <=

    Name: DEF2-TZVPPD
    Role: ORBITAL
    Keyword: BASIS
    atoms 1-3 entry CU         line  1290 file /mnt/storage/home/zw18965/.conda/envs/p4env/share/psi4/basis/def2-tzvppd.gbs 

   => MN15-D3(BJ): Empirical Dispersion <=

    Grimme's -D3 (BJ-damping) Dispersion Correction
    Grimme S.; Ehrlich S.; Goerigk L. (2011), J. Comput. Chem., 32: 1456
    Parametrisation from:    L. Goerigk, A. Hansen, C. Bauer, S. Ehrlich, A. Najibi, S. Grimme, Phys. Chem. Chem. Phys. 19, 32184-32215, 2017

        s6 =       1.000000
        s8 =       2.097100
        a1 =       0.786200
        a2 =       7.592300


         ---------------------------------------------------------
                                   SCF
               by Justin Turney, Rob Parrish, Andy Simmonett
                          and Daniel G. A. Smith
                              RKS Reference
                       28 Threads, 114440 MiB Core
         ---------------------------------------------------------

  ==> Geometry <==

    Molecular point group: d2h
    Full point group: D_inf_h

    Geometry (in Angstrom), charge = 1, multiplicity = 1:

       Center              X                  Y                   Z               Mass       
    ------------   -----------------  -----------------  -----------------  -----------------
         CU           0.000000000000    -0.000000000000     0.000000000000    62.929597720000
         CU           0.000000000000     0.000000000000     2.363852904423    62.929597720000
         CU           0.000000000000     0.000000000000    -2.363852904423    62.929597720000

  Running in d2h symmetry.

  Rotational constants: A = ************  B =      0.02397  C =      0.02397 [cm^-1]
  Rotational constants: A = ************  B =    718.60685  C =    718.60685 [MHz]
  Nuclear repulsion =  470.670185675161349

  Charge       = 1
  Multiplicity = 1
  Electrons    = 86
  Nalpha       = 43
  Nbeta        = 43

  ==> Algorithm <==

  SCF Algorithm Type is DF.
  DIIS enabled.
  MOM disabled.
  Fractional occupation disabled.
  Guess Type is READ.
  Energy threshold   = 1.00e-08
  Density threshold  = 1.00e-08
  Integral threshold = 1.00e-12

  ==> Primary Basis <==

  Basis Set: DEF2-TZVPPD
    Blend: DEF2-TZVPPD
    Number of shells: 57
    Number of basis functions: 201
    Number of Cartesian functions: 249
    Spherical Harmonics?: true
    Max angular momentum: 4

  ==> DFT Potential <==

   => Composite Functional: MN15-D3BJ <= 

   MN15 Hybrid Meta-GGA Exchange-Correlation Functional

    H. S. Yu, X. He, S. L. Li, and D. G. Truhlar, Chem. Sci. 7, 5032-5051, 2016


    Deriv               =              1
    GGA                 =           TRUE
    Meta                =           TRUE

    Exchange Hybrid     =           TRUE
    MP2 Hybrid          =          FALSE

   => Exchange Functionals <=

    1.0000   XC_HYB_MGGA_X_MN15

   => Exact (HF) Exchange <=

    0.4400               HF 

   => Correlation Functionals <=

    1.0000   XC_MGGA_C_MN15

   => LibXC Density Thresholds  <==

    XC_MGGA_C_MN15:  1.00E-15 
    XC_HYB_MGGA_X_MN15:  1.00E-15 

   => Molecular Quadrature <=

    Radial Scheme          =       TREUTLER
    Pruning Scheme         =           NONE
    Nuclear Scheme         =       TREUTLER

    BS radius alpha        =              1
    Pruning alpha          =              1
    Radial Points          =             75
    Spherical Points       =            302
    Total Points           =          65086
    Total Blocks           =            630
    Max Points             =            255
    Max Functions          =            170
    Weights Tolerance      =       1.00E-15

   => Loading Basis Set <=

    Name: (DEF2-TZVPPD AUX)
    Role: JKFIT
    Keyword: DF_BASIS_SCF
    atoms 1-3 entry CU         line  2356 file /mnt/storage/home/zw18965/.conda/envs/p4env/share/psi4/basis/def2-universal-jkfit.gbs 

   => Loading Basis Set <=

    Name: DEF2-TZVPPD
    Role: ORBITAL
    Keyword: BASIS
    atoms 1-3 entry CU         line  1290 file /mnt/storage/home/zw18965/.conda/envs/p4env/share/psi4/basis/def2-tzvppd.gbs 

  Reading orbitals from file /tmp/Cu03C1_LIN.default.27666.180.npy, no projection.

  ==> Integral Setup <==

  DFHelper Memory: AOs need 0.225 GiB; user supplied 83.277 GiB. Using in-core AOs.

  ==> MemDFJK: Density-Fitted J/K Matrices <==

    J tasked:                   Yes
    K tasked:                   Yes
    wK tasked:                   No
    OpenMP threads:              28
    Memory [MiB]:             85275
    Algorithm:                 Core
    Schwarz Cutoff:           1E-12
    Mask sparsity (%):      16.1234
    Fitting Condition:        1E-10

   => Auxiliary Basis Set <=

  Basis Set: (DEF2-TZVPPD AUX)
    Blend: DEF2-UNIVERSAL-JKFIT
    Number of shells: 174
    Number of basis functions: 792
    Number of Cartesian functions: 1131
    Spherical Harmonics?: true
    Max angular momentum: 6

  Cached 100.0% of DFT collocation blocks in 0.542 [GiB].

  Minimum eigenvalue in the overlap matrix is 4.4040082570E-04.
  Reciprocal condition number of the overlap matrix is 1.0345111013E-04.
    Using symmetric orthogonalization.

  ==> Pre-Iterations <==

  SCF Guess: Orbitals guess was supplied from a previous computation.

   -------------------------------------------------------
    Irrep   Nso     Nmo     Nalpha   Nbeta   Ndocc  Nsocc
   -------------------------------------------------------
     Ag        44      44      13      13      13       0
     B1g       14      14       2       2       2       0
     B2g       22      22       4       4       4       0
     B3g       22      22       4       4       4       0
     Au        10      10       1       1       1       0
     B1u       37      37       9       9       9       0
     B2u       26      26       5       5       5       0
     B3u       26      26       5       5       5       0
   -------------------------------------------------------
    Total     201     201      43      43      43       0
   -------------------------------------------------------

  ==> Iterations <==

                           Total Energy        Delta E     RMS |[F,P]|

   @DF-RKS iter   0: -4922.09550199594378   -4.92210e+03   4.21935e-05 
   @DF-RKS iter   1: -4922.09479372092028    7.08275e-04   2.39887e-06 DIIS
   @DF-RKS iter   2: -4922.09479370325062    1.76697e-08   5.48379e-06 DIIS
   @DF-RKS iter   3: -4922.09479372698388   -2.37333e-08   4.74813e-07 DIIS
   @DF-RKS iter   4: -4922.09479372725127   -2.67391e-10   2.99443e-07 DIIS
   @DF-RKS iter   5: -4922.09479372733131   -8.00355e-11   4.75965e-08 DIIS
   @DF-RKS iter   6: -4922.09479372733949   -8.18545e-12   1.66187e-08 DIIS
   @DF-RKS iter   7: -4922.09479372733767    1.81899e-12   3.34489e-09 DIIS
  Energy and wave function converged.


  ==> Post-Iterations <==

   Electrons on quadrature grid:
      Ntotal   =   85.9999814108 ; deviation = -1.859e-05 

    Orbital Energies [Eh]
    ---------------------

    Doubly Occupied:                                                      

       1B1u -320.905266     1Ag  -320.905260     2Ag  -320.865309  
       2B1u  -38.068471     3Ag   -38.068389     4Ag   -38.036831  
       5Ag   -33.921006     3B1u  -33.921003     1B2g  -33.919403  
       1B3g  -33.919403     1B3u  -33.919400     1B2u  -33.919400  
       4B1u  -33.889924     2B2u  -33.885045     2B3u  -33.885045  
       5B1u   -4.292257     6Ag    -4.292203     7Ag    -4.256111  
       6B1u   -2.965398     8Ag    -2.965230     3B2u   -2.963133  
       3B3u   -2.963133     2B3g   -2.963125     2B2g   -2.963125  
       7B1u   -2.929393     4B2u   -2.923280     4B3u   -2.923280  
       9Ag    -0.557826     3B2g   -0.542965     3B3g   -0.542965  
       8B1u   -0.536978     5B3u   -0.535826     5B2u   -0.535826  
      10Ag    -0.533676     1B1g   -0.533674     9B1u   -0.533243  
       1Au    -0.533241    11Ag    -0.490590     2B1g   -0.490588  
       4B2g   -0.487502     4B3g   -0.487502    12Ag    -0.486004  
      13Ag    -0.426380  

    Virtual:                                                              

      10B1u   -0.304470    14Ag    -0.192622     6B2u   -0.174590  
       6B3u   -0.174590    11B1u   -0.124573     5B2g   -0.113240  
       5B3g   -0.113240     7B3u   -0.033475     7B2u   -0.033475  
      15Ag    -0.021272    12B1u   -0.021163    16Ag    -0.008957  
       8B2u    0.021599     8B3u    0.021599     6B3g    0.039066  
       6B2g    0.039066    13B1u    0.041241    17Ag     0.041739  
       3B1g    0.041743    18Ag     0.082039     9B2u    0.087699  
       9B3u    0.087699    14B1u    0.092660     2Au     0.092662  
      19Ag     0.112675     7B3g    0.124975     7B2g    0.124975  
      15B1u    0.157124    20Ag     0.179936     4B1g    0.179937  
      16B1u    0.194749    10B3u    0.233418    10B2u    0.233418  
      21Ag     0.257613     8B2g    0.336184     8B3g    0.336184  
      22Ag     0.375907    17B1u    0.415288    18B1u    0.472475  
      11B3u    0.537439    11B2u    0.537439     9B2g    0.559346  
       9B3g    0.559346    12B2u    0.620625    12B3u    0.620625  
      23Ag     0.638008     5B1g    0.727310    24Ag     0.727351  
      10B2g    0.758032    10B3g    0.758032     3Au     0.760017  
      19B1u    0.760047    20B1u    0.773098    25Ag     0.796819  
      13B3u    0.812161    13B2u    0.812161     6B1g    0.830736  
      26Ag     0.830784    11B2g    0.994575    11B3g    0.994575  
      21B1u    1.014215    27Ag     1.295485    14B3u    2.760798  
      14B2u    2.760798    28Ag     2.821752    12B2g    2.842421  
      12B3g    2.842421    22B1u    2.859844    23B1u    2.882972  
      15B3u    2.884440    15B2u    2.884440    29Ag     2.992173  
      30Ag     3.162422    24B1u    3.184415    13B2g    3.191383  
      13B3g    3.191383    16B2u    3.198758    16B3u    3.198758  
       4Au     3.200233    25B1u    3.200292     7B1g    3.201057  
      31Ag     3.201115    17B3u    3.202770    17B2u    3.202770  
      14B2g    3.202770    14B3g    3.202770    18B2u    3.234852  
      18B3u    3.234852     5Au     3.247778    26B1u    3.247875  
      19B3u    3.256527    19B2u    3.256527    27B1u    3.266922  
      32Ag     3.349578     8B1g    3.403802    33Ag     3.403853  
       6Au     3.420091    28B1u    3.420133    15B3g    3.447290  
      15B2g    3.447290    29B1u    3.477256     9B1g    3.484257  
      34Ag     3.484329    20B2u    3.518673    20B3u    3.518673  
      16B2g    3.622782    16B3g    3.622782    35Ag     3.719209  
      30B1u    3.819587    36Ag     4.166527    21B2u   12.497312  
      21B3u   12.497312    17B3g   12.497865    17B2g   12.497865  
       7Au    12.497906    10B1g   12.497940    31B1u   12.498010  
      37Ag    12.498044    32B1u   12.498251    38Ag    12.498675  
      22B2u   12.498886    22B3u   12.498886    18B3g   12.498887  
      18B2g   12.498887    33B1u   12.499719    39Ag    12.499719  
      11B1g   12.499834     8Au    12.499834    19B2g   12.537212  
      19B3g   12.537212    12B1g   12.538445    40Ag    12.538631  
      41Ag    12.539584    20B3g   12.541348    20B2g   12.541348  
      42Ag    12.544837    13B1g   12.544998     9Au    12.661796  
      34B1u   12.661924    23B3u   12.662420    23B2u   12.662420  
      21B2g   12.662422    21B3g   12.662422    14B1g   12.662539  
      24B3u   12.662646    24B2u   12.662646    43Ag    12.662666  
      22B2g   12.672495    22B3g   12.672495    35B1u   12.676952  
      10Au    12.698651    36B1u   12.698838    25B3u   12.700743  
      25B2u   12.700743    26B2u   12.707774    26B3u   12.707774  
      44Ag    12.729894    37B1u   12.775974  

    Final Occupation by Irrep:
             Ag   B1g   B2g   B3g    Au   B1u   B2u   B3u 
    DOCC [    13,    2,    4,    4,    1,    9,    5,    5 ]

  @DF-RKS Final Energy: -4922.09479372733767

   => Energetics <=

    Nuclear Repulsion Energy =            470.6701856751613491
    One-Electron Energy =               -7785.9591104990822714
    Two-Electron Energy =                2508.8879127711197725
    DFT Exchange-Correlation Energy =    -115.6936881145366556
    Empirical Dispersion Energy =          -0.0000935600000000
    VV10 Nonlocal Energy =                  0.0000000000000000
    Total Energy =                      -4922.0947937273376738

Computation Completed


[...]

   @DF-RKS iter   4: -4912.59172438936912    7.12297e+00   5.59422e-02 DIIS
   @DF-RKS iter   5: -4921.07786153774668   -8.48614e+00   2.41478e-02 DIIS
   @DF-RKS iter   6: -4922.04981378335833   -9.71952e-01   5.08546e-03 DIIS
   @DF-RKS iter   7: -4922.08141237921154   -3.15986e-02   2.41569e-03 DIIS
   @DF-RKS iter   8: -4922.09311364690166   -1.17013e-02   9.99605e-04 DIIS
   @DF-RKS iter   9: -4922.09478122293422   -1.66758e-03   5.74072e-05 DIIS
   @DF-RKS iter  10: -4922.09479204835316   -1.08254e-05   1.01496e-05 DIIS
   @DF-RKS iter  11: -4922.09479323066626   -1.18231e-06   5.23462e-06 DIIS
   @DF-RKS iter  12: -4922.09479368326447   -4.52598e-07   1.73398e-06 DIIS
   @DF-RKS iter  13: -4922.09479372655642   -4.32919e-08   6.33840e-07 DIIS
   @DF-RKS iter  14: -4922.09479373108388   -4.52746e-09   5.35204e-08 DIIS
   @DF-RKS iter  15: -4922.09479373113027   -4.63842e-11   1.60689e-08 DIIS
   @DF-RKS iter  16: -4922.09479373113572   -5.45697e-12   4.83199e-09 DIIS
  Energy and wave function converged.


  ==> Post-Iterations <==

   Electrons on quadrature grid:
      Ntotal   =   85.9999814110 ; deviation = -1.859e-05 

    Orbital Energies [Eh]
    ---------------------

    Doubly Occupied:                                                      

       1B2  -320.905266     1A1  -320.905260     2A1  -320.865309  
       2B2   -38.068471     3A1   -38.068389     4A1   -38.036831  
       5A1   -33.921006     3B2   -33.921003     1A2   -33.919403  
       4B2   -33.919403     1B1   -33.919400     6A1   -33.919400  
       5B2   -33.889924     7A1   -33.885045     2B1   -33.885045  
       6B2    -4.292257     8A1    -4.292203     9A1    -4.256111  
       7B2    -2.965398    10A1    -2.965230    11A1    -2.963133  
       3B1    -2.963133     8B2    -2.963125     2A2    -2.963125  
       9B2    -2.929393    12A1    -2.923280     4B1    -2.923280  
      13A1    -0.557826    10B2    -0.542965     3A2    -0.542965  
      11B2    -0.536978    14A1    -0.535826     5B1    -0.535826  
      15A1    -0.533676     6B1    -0.533674    12B2    -0.533243  
       4A2    -0.533241    16A1    -0.490590     7B1    -0.490588  
       5A2    -0.487502    13B2    -0.487502    17A1    -0.486004  
      18A1    -0.426380  

    Virtual:                                                              

      14B2    -0.304470    19A1    -0.192622     8B1    -0.174590  
      20A1    -0.174590    15B2    -0.124573     6A2    -0.113240  
      16B2    -0.113240    21A1    -0.033475     9B1    -0.033475  
      22A1    -0.021272    17B2    -0.021163    23A1    -0.008957  
      10B1     0.021599    24A1     0.021599    18B2     0.039066  
       7A2     0.039066    19B2     0.041241    25A1     0.041739  
      11B1     0.041743    26A1     0.082039    12B1     0.087699  
      27A1     0.087699    20B2     0.092660     8A2     0.092662  
      28A1     0.112675    21B2     0.124975     9A2     0.124975  
      22B2     0.157124    29A1     0.179936    13B1     0.179937  
      23B2     0.194749    30A1     0.233418    14B1     0.233418  
      31A1     0.257613    24B2     0.336184    10A2     0.336184  
      32A1     0.375907    25B2     0.415288    26B2     0.472475  
      33A1     0.537439    15B1     0.537439    11A2     0.559346  
      27B2     0.559346    34A1     0.620625    16B1     0.620625  
      35A1     0.638008    17B1     0.727310    36A1     0.727351  
      28B2     0.758031    12A2     0.758032    13A2     0.760018  
      29B2     0.760047    30B2     0.773098    37A1     0.796819  
      18B1     0.812161    38A1     0.812161    19B1     0.830736  
      39A1     0.830784    31B2     0.994575    14A2     0.994575  
      32B2     1.014216    40A1     1.295485    20B1     2.760798  
      41A1     2.760798    42A1     2.821752    33B2     2.842421  
      15A2     2.842421    34B2     2.859844    35B2     2.882972  
      21B1     2.884440    43A1     2.884440    44A1     2.992172  
      45A1     3.162422    36B2     3.184415    16A2     3.191383  
      37B2     3.191383    22B1     3.198758    46A1     3.198758  
      17A2     3.200233    38B2     3.200292    23B1     3.201057  
      47A1     3.201115    24B1     3.202770    48A1     3.202770  
      18A2     3.202770    39B2     3.202770    25B1     3.234852  
      49A1     3.234852    19A2     3.247778    40B2     3.247874  
      26B1     3.256527    50A1     3.256527    41B2     3.266922  
      51A1     3.349578    27B1     3.403802    52A1     3.403853  
      20A2     3.420091    42B2     3.420133    43B2     3.447290  
      21A2     3.447290    44B2     3.477256    28B1     3.484257  
      53A1     3.484329    54A1     3.518673    29B1     3.518673  
      22A2     3.622782    45B2     3.622782    55A1     3.719209  
      46B2     3.819587    56A1     4.166527    30B1    12.497312  
      57A1    12.497312    23A2    12.497865    47B2    12.497865  
      24A2    12.497906    31B1    12.497940    48B2    12.498010  
      58A1    12.498044    49B2    12.498251    59A1    12.498675  
      60A1    12.498886    32B1    12.498886    50B2    12.498887  
      25A2    12.498887    51B2    12.499719    61A1    12.499719  
      33B1    12.499834    26A2    12.499834    27A2    12.537212  
      52B2    12.537212    34B1    12.538445    62A1    12.538631  
      63A1    12.539584    53B2    12.541348    28A2    12.541348  
      64A1    12.544837    35B1    12.544998    29A2    12.661796  
      54B2    12.661924    36B1    12.662420    65A1    12.662420  
      30A2    12.662422    55B2    12.662422    37B1    12.662539  
      66A1    12.662646    38B1    12.662646    67A1    12.662666  
      56B2    12.672495    31A2    12.672495    57B2    12.676952  
      32A2    12.698651    58B2    12.698838    39B1    12.700743  
      68A1    12.700743    69A1    12.707774    40B1    12.707774  
      70A1    12.729894    59B2    12.775974  

    Final Occupation by Irrep:
             A1    A2    B1    B2 
    DOCC [    18,    5,    7,   13 ]

  @DF-RKS Final Energy: -4922.09479373113572

   => Energetics <=

    Nuclear Repulsion Energy =            470.6701800528569493
    One-Electron Energy =               -7785.9590914254567906
    Two-Electron Energy =                2508.8878990912571680
    DFT Exchange-Correlation Energy =    -115.6936878897938072
    Empirical Dispersion Energy =          -0.0000935600000000
    VV10 Nonlocal Energy =                  0.0000000000000000
    Total Energy =                      -4922.0947937311366331

Computation Completed


Properties will be evaluated at   0.000000,   0.000000,   0.000000 [a0]

Properties computed using the SCF density matrix

  Nuclear Dipole Moment: [e a0]
     X:     0.0000      Y:     0.0000      Z:    -0.0000

  Electronic Dipole Moment: [e a0]
     X:     0.0002      Y:     0.0000      Z:     0.0000

  Dipole Moment: [e a0]
     X:     0.0002      Y:     0.0000      Z:    -0.0000     Total:     0.0002

  Dipole Moment: [D]
     X:     0.0005      Y:     0.0000      Z:    -0.0000     Total:     0.0005


*** tstop() called on compute227.bc4.acrc.priv at Tue Nov  2 10:34:26 2021
Module time:
	user time   =      80.02 seconds =       1.33 minutes
	system time =       2.18 seconds =       0.04 minutes
	total time  =          4 seconds =       0.07 minutes
Total time:
	user time   =    1461.43 seconds =      24.36 minutes
	system time =      46.10 seconds =       0.77 minutes
	total time  =        205 seconds =       3.42 minutes

*** tstart() called on compute227.bc4.acrc.priv
*** at Tue Nov  2 10:34:26 2021


         ------------------------------------------------------------
                                   SCF GRAD                          
                          Rob Parrish, Justin Turney,                
                       Andy Simmonett, and Alex Sokolov              
         ------------------------------------------------------------

  ==> Geometry <==

    Molecular point group: c2v
    Full point group: C2v

    Geometry (in Angstrom), charge = 1, multiplicity = 1:

       Center              X                  Y                   Z               Mass       
    ------------   -----------------  -----------------  -----------------  -----------------
         CU          -0.000272331595     0.000000000000     0.000000000000    62.929597720000
         CU           0.000136165798     0.000000000000     2.363852904423    62.929597720000
         CU           0.000136165798     0.000000000000    -2.363852904423    62.929597720000

  Nuclear repulsion =  470.670180052856949

  ==> Basis Set <==

  Basis Set: DEF2-TZVPPD
    Blend: DEF2-TZVPPD
    Number of shells: 57
    Number of basis functions: 201
    Number of Cartesian functions: 249
    Spherical Harmonics?: true
    Max angular momentum: 4

  ==> DFJKGrad: Density-Fitted SCF Gradients <==

    Gradient:                    1
    J tasked:                  Yes
    K tasked:                  Yes
    wK tasked:                  No
    OpenMP threads:             28
    Integrals threads:          28
    Memory [MiB]:            85830
    Schwarz Cutoff:          1E-12
    Fitting Condition:       1E-10

   => Auxiliary Basis Set <=

  Basis Set: (DEF2-TZVPPD AUX)
    Blend: DEF2-UNIVERSAL-JKFIT
    Number of shells: 174
    Number of basis functions: 792
    Number of Cartesian functions: 1131
    Spherical Harmonics?: true
    Max angular momentum: 6

  ==> DFT Potential <==

   => Composite Functional: MN15-D3BJ <= 

   MN15 Hybrid Meta-GGA Exchange-Correlation Functional

    H. S. Yu, X. He, S. L. Li, and D. G. Truhlar, Chem. Sci. 7, 5032-5051, 2016


    Deriv               =              1
    GGA                 =           TRUE
    Meta                =           TRUE

    Exchange Hybrid     =           TRUE
    MP2 Hybrid          =          FALSE

   => Exchange Functionals <=

    1.0000   XC_HYB_MGGA_X_MN15

   => Exact (HF) Exchange <=

    0.4400               HF 

   => Correlation Functionals <=

    1.0000   XC_MGGA_C_MN15

   => LibXC Density Thresholds  <==

    XC_MGGA_C_MN15:  1.00E-15 
    XC_HYB_MGGA_X_MN15:  1.00E-15 

   => Molecular Quadrature <=

    Radial Scheme          =       TREUTLER
    Pruning Scheme         =           NONE
    Nuclear Scheme         =       TREUTLER

    BS radius alpha        =              1
    Pruning alpha          =              1
    Radial Points          =             75
    Spherical Points       =            302
    Total Points           =          65090
    Total Blocks           =            623
    Max Points             =            256
    Max Functions          =            170
    Weights Tolerance      =       1.00E-15


  -Total Gradient:
     Atom            X                  Y                   Z
    ------   -----------------  -----------------  -----------------
       1        0.000006000435     0.000000000000     0.000000000000
       2       -0.000002959715    -0.000000000000    -0.000004557690
       3       -0.000002959715     0.000000000000     0.000004557690


*** tstop() called on compute227.bc4.acrc.priv at Tue Nov  2 10:34:41 2021
Module time:
	user time   =      59.00 seconds =       0.98 minutes
	system time =       1.43 seconds =       0.02 minutes
	total time  =         15 seconds =       0.25 minutes
Total time:
	user time   =    1523.74 seconds =      25.40 minutes
	system time =      47.69 seconds =       0.79 minutes
	total time  =        220 seconds =       3.67 minutes

         ----------------------------------------------------------
                                   FINDIF
                     R. A. King and Jonathon Misiewicz
         ---------------------------------------------------------

  Computing second-derivative from gradients using projected, 
  symmetry-adapted, cartesian coordinates.

  6 gradients passed in, including the reference geometry.
  Generating complete list of displacements from unique ones.

    Operation 3 takes plus displacements of irrep B1u to minus ones.
    Operation 2 takes plus displacements of irrep B2u to minus ones.
    Operation 2 takes plus displacements of irrep B3u to minus ones.

-------------------------------------------------------------


  ==> Harmonic Vibrational Analysis <==

  non-mass-weighted Hessian:       Symmetric? True   Hermitian? True   Lin Dep Dim?  5 (0)
  projection of translations (True) and rotations (True) removed 5 degrees of freedom (5)
  total projector:                 Symmetric? True   Hermitian? True   Lin Dep Dim?  5 (5)
  mass-weighted Hessian:           Symmetric? True   Hermitian? True   Lin Dep Dim?  5 (0)
  pre-proj  low-frequency mode:    0.0000i [cm^-1]
  pre-proj  low-frequency mode:    0.0000i [cm^-1]
  pre-proj  low-frequency mode:    0.0000i [cm^-1]
  pre-proj  low-frequency mode:    0.0000i [cm^-1]
  pre-proj  low-frequency mode:    0.0000i [cm^-1]
  pre-proj  low-frequency mode:    0.0000i [cm^-1]
  pre-proj  low-frequency mode:    0.0000  [cm^-1]
  pre-proj  all modes:['69.8137i' '69.8137i' '0.0000i' '0.0000i' '0.0000i' '0.0000i' '0.0000'
 '141.1160' '239.5151']
  projected mass-weighted Hessian: Symmetric? True   Hermitian? True   Lin Dep Dim?  5 (5)
  post-proj low-frequency mode:   69.8137i [cm^-1] (V)
  post-proj low-frequency mode:   69.8137i [cm^-1] (V)
  post-proj low-frequency mode:    0.0000i [cm^-1] (TR)
  post-proj low-frequency mode:    0.0000i [cm^-1] (TR)
  post-proj low-frequency mode:    0.0000  [cm^-1] (TR)
  post-proj low-frequency mode:    0.0000  [cm^-1] (TR)
  post-proj low-frequency mode:    0.0000  [cm^-1] (TR)
  post-proj  all modes:['69.8137i' '69.8137i' '0.0000i' '0.0000i' '0.0000' '0.0000' '0.0000'
 '141.1160' '239.5151']

  Vibration                       1                   2                   8           
  Freq [cm^-1]                 69.8137i            69.8137i            141.1160       
  Irrep                          B2u                 B3u                  Ag          
  Reduced mass [u]             62.9296             62.9296             62.9296        
  Force const [mDyne/A]        -0.1807             -0.1807              0.7383        
  Turning point v=0 [a0]        0.0000              0.0000              0.1164        
  RMS dev v=0 [a0 u^1/2]        0.0000              0.0000              0.6531        
  Char temp [K]                 0.0000              0.0000             203.0345       
  ----------------------------------------------------------------------------------
      1   CU               0.00  0.82  0.00    0.82 -0.00 -0.00   -0.00 -0.00 -0.00   
      2   CU              -0.00 -0.41  0.00   -0.41  0.00 -0.00    0.00 -0.00  0.71   
      3   CU              -0.00 -0.41  0.00   -0.41  0.00 -0.00   -0.00  0.00 -0.71   

  Vibration                       9           
  Freq [cm^-1]                 239.5151       
  Irrep                          B1u          
  Reduced mass [u]             62.9296        
  Force const [mDyne/A]         2.1270        
  Turning point v=0 [a0]        0.0894        
  RMS dev v=0 [a0 u^1/2]        0.5013        
  Char temp [K]                344.6089       
  ----------------------------------------------------------------------------------
      1   CU               0.00  0.00  0.82   
      2   CU               0.00  0.00 -0.41   
      3   CU              -0.00 -0.00 -0.41   

  ==> Thermochemistry Components <==

  Entropy, S
    Electronic S            0.000 [cal/(mol K)]        0.000 [J/(mol K)]       0.00000000 [mEh/K] (multiplicity = 1)
    Translational S        41.612 [cal/(mol K)]      174.105 [J/(mol K)]       0.06631321 [mEh/K] (mol. weight = 188.7888 [u], P = 101325.00 [Pa])
    Rotational S           18.623 [cal/(mol K)]       77.920 [J/(mol K)]       0.02967809 [mEh/K] (symmetry no. = 2)
    Vibrational S           4.595 [cal/(mol K)]       19.226 [J/(mol K)]       0.00732286 [mEh/K]
  Total S                  64.831 [cal/(mol K)]      271.251 [J/(mol K)]       0.10331416 [mEh/K]
  Correction S              0.000 [cal/(mol K)]        0.000 [J/(mol K)]       0.00000000 [mEh/K]

  Constant volume heat capacity, Cv
    Electronic Cv           0.000 [cal/(mol K)]        0.000 [J/(mol K)]       0.00000000 [mEh/K]
    Translational Cv        2.981 [cal/(mol K)]       12.472 [J/(mol K)]       0.00475022 [mEh/K]
    Rotational Cv           1.987 [cal/(mol K)]        8.314 [J/(mol K)]       0.00316681 [mEh/K]
    Vibrational Cv          3.692 [cal/(mol K)]       15.448 [J/(mol K)]       0.00588383 [mEh/K]
  Total Cv                  8.660 [cal/(mol K)]       36.234 [J/(mol K)]       0.01380086 [mEh/K]
  Correction Cv             0.000 [cal/(mol K)]        0.000 [J/(mol K)]       0.00000000 [mEh/K]

  Constant pressure heat capacity, Cp
    Electronic Cp           0.000 [cal/(mol K)]        0.000 [J/(mol K)]       0.00000000 [mEh/K]
    Translational Cp        4.968 [cal/(mol K)]       20.786 [J/(mol K)]       0.00791703 [mEh/K]
    Rotational Cp           1.987 [cal/(mol K)]        8.314 [J/(mol K)]       0.00316681 [mEh/K]
    Vibrational Cp          3.692 [cal/(mol K)]       15.448 [J/(mol K)]       0.00588383 [mEh/K]
  Total Cp                 10.647 [cal/(mol K)]       44.549 [J/(mol K)]       0.01696767 [mEh/K]
  Correction Cp             0.000 [cal/(mol K)]        0.000 [J/(mol K)]       0.00000000 [mEh/K]

  ==> Thermochemistry Energy Analysis <==

  Raw electronic energy, E0
  Total E0, Electronic energy at well bottom at 0 [K]                -4922.09479372 [Eh]

  Zero-point energy, ZPE_vib = Sum_i nu_i / 2
    Electronic ZPE          0.000 [kcal/mol]        0.000 [kJ/mol]       0.00000000 [Eh]
    Translational ZPE       0.000 [kcal/mol]        0.000 [kJ/mol]       0.00000000 [Eh]
    Rotational ZPE          0.000 [kcal/mol]        0.000 [kJ/mol]       0.00000000 [Eh]
    Vibrational ZPE         0.544 [kcal/mol]        2.277 [kJ/mol]       0.00086714 [Eh]         190.316 [cm^-1]
  Correction ZPE            0.544 [kcal/mol]        2.277 [kJ/mol]       0.00086714 [Eh]         190.316 [cm^-1]
  Total ZPE, Electronic energy at 0 [K]                              -4922.09392658 [Eh]

  Thermal Energy, E (includes ZPE)
    Electronic E            0.000 [kcal/mol]        0.000 [kJ/mol]       0.00000000 [Eh]
    Translational E         0.889 [kcal/mol]        3.718 [kJ/mol]       0.00141628 [Eh]
    Rotational E            0.592 [kcal/mol]        2.479 [kJ/mol]       0.00094418 [Eh]
    Vibrational E           1.272 [kcal/mol]        5.323 [kJ/mol]       0.00202742 [Eh]
  Correction E              2.753 [kcal/mol]       11.520 [kJ/mol]       0.00438788 [Eh]
  Total E, Electronic energy at  298.15 [K]                          -4922.09040584 [Eh]

  Enthalpy, H_trans = E_trans + k_B * T
    Electronic H            0.000 [kcal/mol]        0.000 [kJ/mol]       0.00000000 [Eh]
    Translational H         1.481 [kcal/mol]        6.197 [kJ/mol]       0.00236046 [Eh]
    Rotational H            0.592 [kcal/mol]        2.479 [kJ/mol]       0.00094418 [Eh]
    Vibrational H           1.272 [kcal/mol]        5.323 [kJ/mol]       0.00202742 [Eh]
  Correction H              3.346 [kcal/mol]       13.999 [kJ/mol]       0.00533207 [Eh]
  Total H, Enthalpy at  298.15 [K]                                   -4922.08946165 [Eh]

  Gibbs free energy, G = H - T * S
    Electronic G            0.000 [kcal/mol]        0.000 [kJ/mol]       0.00000000 [Eh]
    Translational G       -10.925 [kcal/mol]      -45.712 [kJ/mol]      -0.01741082 [Eh]
    Rotational G           -4.960 [kcal/mol]      -20.753 [kJ/mol]      -0.00790434 [Eh]
    Vibrational G          -0.098 [kcal/mol]       -0.409 [kJ/mol]      -0.00015589 [Eh]
  Correction G            -15.983 [kcal/mol]      -66.874 [kJ/mol]      -0.02547105 [Eh]
  Total G, Free enthalpy at  298.15 [K]                              -4922.12026477 [Eh]

    Psi4 stopped on: Tuesday, 02 November 2021 10:34AM
    Psi4 wall time for execution: 0:03:40.02

*** Psi4 exiting successfully. Buy a developer a beer!
