Optimizer: Optimization complete!
 6 displacements needed.
 1 2 3 4 5 6
Warning: thermodynamics relations excluded imaginary frequencies: ['113.0163i']
Warning: used thermodynamics relations inappropriate for low-frequency modes: ['174.0984' '256.0573']
At level 1: Red. Int., RFO, no backsteps, dynamic trust
At level 1: Red. Int., RFO, no backsteps, dynamic trust
At level 1: Red. Int., RFO, no backsteps, dynamic trust
At level 1: Red. Int., RFO, no backsteps, dynamic trust
At level 1: Red. Int., RFO, no backsteps, dynamic trust
At level 1: Red. Int., RFO, no backsteps, dynamic trust
 B. P. Pritchard, B. R. Brooks, H. F. Schaefer III, A. Yu. Sokolov,
    K. Patkowski, A. E. DePrince III, U. Bozkaya, R. A. King,
    F. A. Evangelista, J. M. Turney, T. D. Crawford, C. D. Sherrill,
    J. Chem. Phys. 152(18) 184108 (2020). https://doi.org/10.1063/5.0006002

                            Additional Code Authors
    E. T. Seidl, C. L. Janssen, E. F. Valeev, M. L. Leininger,
    J. F. Gonthier, R. M. Richard, H. R. McAlexander, M. Saitow, X. Wang,
    P. Verma, and M. H. Lechner

             Previous Authors, Complete List of Code Contributors,
                       and Citations for Specific Modules
    https://github.com/psi4/psi4/blob/master/codemeta.json
    https://github.com/psi4/psi4/graphs/contributors
    http://psicode.org/psi4manual/master/introduction.html#citing-psifour

    -----------------------------------------------------------------------


    Psi4 started on: Tuesday, 02 November 2021 10:27AM

    Process ID: 23501
    Host:       compute145.bc4.acrc.priv
    PSIDATADIR: /mnt/storage/home/zw18965/.conda/envs/p4env/share/psi4
    Memory:     500.0 MiB
    Threads:    28
    
  ==> Input File <==

--------------------------------------------------------------------------
memory 120 GB

molecule {
0 2
Cu       0.000000    1.346828   -0.000000 
Cu       1.166387   -0.673414   -0.000000 
Cu      -1.166387   -0.673414   -0.000000 
 }

set reference uks
set dynamic_level 1
set basis Def2-TZVPPD

optimize("MN15-D3BJ")
frequencies("MN15-D3BJ")
--------------------------------------------------------------------------

  Memory set to 111.759 GiB by Python driver.

Scratch directory: /tmp/
gradient() will perform analytic gradient computation.

*** tstart() called on compute145.bc4.acrc.priv
*** at Tue Nov  2 10:27:30 2021

   => Loading Basis Set <=

    Name: DEF2-TZVPPD
    Role: ORBITAL
    Keyword: BASIS
    atoms 1-3 entry CU         line  1290 file /mnt/storage/home/zw18965/.conda/envs/p4env/share/psi4/basis/def2-tzvppd.gbs 

   => MN15-D3(BJ): Empirical Dispersion <=

    Grimme's -D3 (BJ-damping) Dispersion Correction
    Grimme S.; Ehrlich S.; Goerigk L. (2011), J. Comput. Chem., 32: 1456
    Parametrisation from:    L. Goerigk, A. Hansen, C. Bauer, S. Ehrlich, A. Najibi, S. Grimme, Phys. Chem. Chem. Phys. 19, 32184-32215, 2017

        s6 =       1.000000
        s8 =       2.097100
        a1 =       0.786200
        a2 =       7.592300


         ---------------------------------------------------------
                                   SCF
               by Justin Turney, Rob Parrish, Andy Simmonett
                          and Daniel G. A. Smith
                              UKS Reference
                       28 Threads, 114440 MiB Core
         ---------------------------------------------------------

  ==> Geometry <==

    Molecular point group: c2v
    Full point group: C2v

    Geometry (in Angstrom), charge = 0, multiplicity = 2:

       Center              X                  Y                   Z               Mass       
    ------------   -----------------  -----------------  -----------------  -----------------
         CU           0.000000000000    -0.000000000000     1.346828000000    62.929597720000
         CU           1.166387000000     0.000000000000    -0.673414000000    62.929597720000
         CU          -1.166387000000    -0.000000000000    -0.673414000000    62.929597720000

  Running in c2v symmetry.

  Rotational constants: A =      0.09845  B =      0.09845  C =      0.04923 [cm^-1]
  Rotational constants: A =   2951.52800  B =   2951.52667  C =   1475.76367 [MHz]
  Nuclear repulsion =  572.328889239998603

  Charge       = 0
  Multiplicity = 2
  Electrons    = 87
  Nalpha       = 44
  Nbeta        = 43

  ==> Algorithm <==

  SCF Algorithm Type is DF.
  DIIS enabled.
  MOM disabled.
  Fractional occupation disabled.
  Guess Type is SAD.
  Energy threshold   = 1.00e-08
  Density threshold  = 1.00e-08
  Integral threshold = 1.00e-12

  ==> Primary Basis <==

  Basis Set: DEF2-TZVPPD
    Blend: DEF2-TZVPPD
    Number of shells: 57
    Number of basis functions: 201
    Number of Cartesian functions: 249
    Spherical Harmonics?: true
    Max angular momentum: 4

  ==> DFT Potential <==

   => Composite Functional: MN15-D3BJ <= 

   MN15 Hybrid Meta-GGA Exchange-Correlation Functional

    H. S. Yu, X. He, S. L. Li, and D. G. Truhlar, Chem. Sci. 7, 5032-5051, 2016


    Deriv               =              1
    GGA                 =           TRUE
    Meta                =           TRUE

    Exchange Hybrid     =           TRUE
    MP2 Hybrid          =          FALSE

   => Exchange Functionals <=

    1.0000   XC_HYB_MGGA_X_MN15

   => Exact (HF) Exchange <=

    0.4400               HF 

   => Correlation Functionals <=

    1.0000   XC_MGGA_C_MN15

   => LibXC Density Thresholds  <==

    XC_MGGA_C_MN15:  1.00E-15 
    XC_HYB_MGGA_X_MN15:  1.00E-15 

   => Molecular Quadrature <=

    Radial Scheme          =       TREUTLER
    Pruning Scheme         =           NONE
    Nuclear Scheme         =       TREUTLER

    BS radius alpha        =              1
    Pruning alpha          =              1
    Radial Points          =             75
    Spherical Points       =            302
    Total Points           =          65289
    Total Blocks           =            594
    Max Points             =            255
    Max Functions          =            191
    Weights Tolerance      =       1.00E-15

   => Loading Basis Set <=

    Name: (DEF2-TZVPPD AUX)
    Role: JKFIT
    Keyword: DF_BASIS_SCF
    atoms 1-3 entry CU         line  2356 file /mnt/storage/home/zw18965/.conda/envs/p4env/share/psi4/basis/def2-universal-jkfit.gbs 

  ==> Integral Setup <==

  DFHelper Memory: AOs need 0.247 GiB; user supplied 83.238 GiB. Using in-core AOs.

  ==> MemDFJK: Density-Fitted J/K Matrices <==

    J tasked:                   Yes
    K tasked:                   Yes
    wK tasked:                   No
    OpenMP threads:              28
    Memory [MiB]:             85235
    Algorithm:                 Core
    Schwarz Cutoff:           1E-12
    Mask sparsity (%):       6.8810
    Fitting Condition:        1E-10

   => Auxiliary Basis Set <=

  Basis Set: (DEF2-TZVPPD AUX)
    Blend: DEF2-UNIVERSAL-JKFIT
    Number of shells: 174
    Number of basis functions: 792
    Number of Cartesian functions: 1131
    Spherical Harmonics?: true
    Max angular momentum: 6

  Cached 100.0% of DFT collocation blocks in 0.581 [GiB].

  Minimum eigenvalue in the overlap matrix is 6.2770947454E-04.
  Reciprocal condition number of the overlap matrix is 1.2083655289E-04.
    Using symmetric orthogonalization.

  ==> Pre-Iterations <==

  SCF Guess: Superposition of Atomic Densities via on-the-fly atomic UHF (no occupation information).

   -------------------------
    Irrep   Nso     Nmo    
   -------------------------
     A1        70      70 
     A2        32      32 
     B1        59      59 
     B2        40      40 
   -------------------------
    Total     201     201
   -------------------------

  ==> Iterations <==

                           Total Energy        Delta E     RMS |[F,P]|

   @DF-UKS iter SAD: -4915.41290018647032   -4.91541e+03   0.00000e+00 
    Occupation by irrep:
             A1    A2    B1    B2 
    DOCC [    19,    3,   14,    7 ]
    SOCC [     1,    0,    0,    0 ]

   @DF-UKS iter   1: -4913.47616273463791    1.93674e+00   7.06028e-02 DIIS
    Occupation by irrep:
             A1    A2    B1    B2 
    DOCC [    18,    5,   13,    7 ]
    SOCC [     1,    0,    0,    0 ]

   @DF-UKS iter   2: -4774.31890925029802    1.39157e+02   1.61764e-01 DIIS
   @DF-UKS iter   3: -4919.77115709648388   -1.45452e+02   3.01353e-02 DIIS
   @DF-UKS iter   4: -4919.51725635609728    2.53901e-01   3.46966e-02 DIIS
   @DF-UKS iter   5: -4921.37821346959117   -1.86096e+00   2.18737e-02 DIIS
   @DF-UKS iter   6: -4922.32361991382095   -9.45406e-01   4.70202e-03 DIIS
   @DF-UKS iter   7: -4922.35199838150947   -2.83785e-02   2.17849e-03 DIIS
   @DF-UKS iter   8: -4922.36189469002602   -9.89631e-03   8.16366e-04 DIIS
   @DF-UKS iter   9: -4922.36351655845829   -1.62187e-03   2.29606e-04 DIIS
   @DF-UKS iter  10: -4922.36368334151757   -1.66783e-04   5.78697e-05 DIIS
   @DF-UKS iter  11: -4922.36370678137973   -2.34399e-05   1.83370e-05 DIIS
   @DF-UKS iter  12: -4922.36371397229232   -7.19091e-06   8.24528e-06 DIIS
   @DF-UKS iter  13: -4922.36371613482879   -2.16254e-06   3.02595e-06 DIIS
   @DF-UKS iter  14: -4922.36371633740600   -2.02577e-07   1.15480e-06 DIIS
   @DF-UKS iter  15: -4922.36371636131662   -2.39106e-08   3.77086e-07 DIIS
   @DF-UKS iter  16: -4922.36371636627700   -4.96038e-09   1.25198e-07 DIIS
   @DF-UKS iter  17: -4922.36371636702370   -7.46695e-10   6.11616e-08 DIIS
   @DF-UKS iter  18: -4922.36371636708463   -6.09361e-11   2.69509e-08 DIIS
   @DF-UKS iter  19: -4922.36371636709555   -1.09139e-11   5.13969e-09 DIIS
  Energy and wave function converged.


  ==> Post-Iterations <==

   Electrons on quadrature grid:
      Nalpha   =   43.9999975034 ; deviation = -2.497e-06
      Nbeta    =   42.9999970958 ; deviation = -2.904e-06
      Ntotal   =   86.9999945992 ; deviation = -5.401e-06 

   @Spin Contamination Metric:   1.795853908E-02
   @S^2 Expected:                7.500000000E-01
   @S^2 Observed:                7.679585391E-01
   @S   Expected:                5.000000000E-01
   @S   Observed:                5.000000000E-01

    Orbital Energies [Eh]
    ---------------------

    Alpha Occupied:                                                       

       1B1  -320.708359     1A1  -320.708348     2A1  -320.693387  
       2B1   -37.879170     3A1   -37.879008     4A1   -37.866649  
       3B1   -33.730695     5A1   -33.730682     4B1   -33.728515  
       6A1   -33.728505     1A2   -33.727721     1B2   -33.727713  
       7A1   -33.717018     5B1   -33.716818     2B2   -33.714148  
       8A1    -4.099191     6B1    -4.098715     9A1    -4.085403  
      10A1    -2.772477     7B1    -2.769713    11A1    -2.768937  
       3B2    -2.767630     2A2    -2.767306     8B1    -2.767194  
      12A1    -2.756141     9B1    -2.754474     4B2    -2.750966  
      13A1    -0.378362    14A1    -0.361625     5B2    -0.359773  
      10B1    -0.355899    15A1    -0.346885     6B2    -0.345052  
       3A2    -0.340440    11B1    -0.327103     4A2    -0.323254  
      12B1    -0.322483    16A1    -0.316239     5A2    -0.314516  
      17A1    -0.312589     7B2    -0.311838    13B1    -0.300264  
      18A1    -0.288532    19A1    -0.165887  

    Alpha Virtual:                                                        

      14B1    -0.086190     8B2    -0.034536    20A1    -0.007959  
      15B1     0.011505    21A1     0.024302     9B2     0.050728  
       6A2     0.063429    22A1     0.070907    16B1     0.074346  
      17B1     0.110106    23A1     0.135012    10B2     0.137777  
      24A1     0.143328    25A1     0.154877    18B1     0.156220  
       7A2     0.190961    11B2     0.194367    26A1     0.212567  
      27A1     0.228853    19B1     0.233208     8A2     0.236089  
      12B2     0.241653    20B1     0.244072    28A1     0.254601  
      21B1     0.255561    13B2     0.270025    22B1     0.325707  
      29A1     0.326019     9A2     0.350922    30A1     0.359270  
      23B1     0.380016    10A2     0.382285    31A1     0.383295  
      14B2     0.385795    24B1     0.489103    25B1     0.524007  
      32A1     0.525446    15B2     0.662579    33A1     0.667325  
      34A1     0.716967    26B1     0.719946    11A2     0.773979  
      16B2     0.777000    35A1     0.814715    27B1     0.832041  
      36A1     0.838446    17B2     0.847469    18B2     0.871499  
      12A2     0.875515    37A1     0.959042    28B1     0.968193  
      29B1     0.977468    38A1     0.978585    13A2     1.053607  
      30B1     1.063588    39A1     1.068640    14A2     1.107674  
      19B2     1.112492    31B1     1.275903    40A1     1.277135  
      32B1     1.296453    20B2     2.940244    41A1     3.012391  
      33B1     3.018081    15A2     3.041659    21B2     3.049217  
      34B1     3.055668    42A1     3.056150    43A1     3.064342  
      44A1     3.089533    35B1     3.174879    45A1     3.355045  
      22B2     3.377904    23B2     3.386247    16A2     3.387348  
      36B1     3.400836    46A1     3.402398    37B1     3.405361  
      24B2     3.406938    17A2     3.406980    47A1     3.408436  
      38B1     3.408809    18A2     3.409768    48A1     3.411201  
      19A2     3.416641    25B2     3.416839    39B1     3.421508  
      26B2     3.423116    49A1     3.449109    40B1     3.450354  
      50A1     3.453713    41B1     3.484453    42B1     3.533641  
      51A1     3.539065    27B2     3.622835    52A1     3.626793  
      20A2     3.628433    28B2     3.658600    43B1     3.675754  
      53A1     3.684803    21A2     3.701769    22A2     3.748647  
      29B2     3.755303    54A1     3.880644    44B1     3.882530  
      55A1     3.900724    45B1     3.946326    46B1     4.191174  
      56A1     4.193719    57A1    12.694565    47B1    12.694791  
      30B2    12.695063    23A2    12.695076    48B1    12.695437  
      58A1    12.695510    24A2    12.695842    31B2    12.695963  
      59A1    12.696795    49B1    12.696819    25A2    12.697116  
      50B1    12.697176    32B2    12.697268    60A1    12.697391  
      26A2    12.698817    33B2    12.698818    51B1    12.698845  
      61A1    12.698846    62A1    12.709532    52B1    12.710271  
      34B2    12.711466    27A2    12.711753    53B1    12.713237  
      63A1    12.713530    35B2    12.713709    64A1    12.714935  
      28A2    12.714954    36B2    12.854535    65A1    12.855921  
      37B2    12.856085    54B1    12.856159    29A2    12.856338  
      30A2    12.856850    66A1    12.857232    67A1    12.858410  
      55B1    12.858733    38B2    12.862165    31A2    12.867310  
      56B1    12.868292    39B2    12.870755    68A1    12.872387  
      57B1    12.873583    32A2    12.879028    69A1    12.879674  
      40B2    12.881460    58B1    12.947873    70A1    12.955565  
      59B1    12.957993  

    Beta Occupied:                                                        

       1B1  -320.708245     1A1  -320.708234     2A1  -320.693044  
       2B1   -37.879037     3A1   -37.878875     4A1   -37.866690  
       3B1   -33.730823     5A1   -33.730813     4B1   -33.728586  
       6A1   -33.728572     1A2   -33.727557     1B2   -33.727550  
       7A1   -33.718430     5B1   -33.716465     2B2   -33.713954  
       8A1    -4.098920     6B1    -4.098443     9A1    -4.084107  
      10A1    -2.772371     7B1    -2.768705    11A1    -2.768424  
       3B2    -2.767726     8B1    -2.767643     2A2    -2.767407  
       9B1    -2.754641    12A1    -2.754633     4B2    -2.751177  
      13A1    -0.376651    14A1    -0.360635     5B2    -0.359558  
      10B1    -0.353302    15A1    -0.345420     6B2    -0.344579  
       3A2    -0.339726    11B1    -0.327108     4A2    -0.323739  
      12B1    -0.321882    16A1    -0.315519     5A2    -0.313602  
       7B2    -0.309506    17A1    -0.308732    13B1    -0.296812  
      18A1    -0.279236  

    Beta Virtual:                                                         

      14B1    -0.077048    19A1    -0.054528     8B2    -0.026655  
      20A1     0.024976    15B1     0.047163    21A1     0.053332  
       6A2     0.070414    16B1     0.078309     9B2     0.085707  
      22A1     0.088837    17B1     0.131015    23A1     0.136848  
      10B2     0.145515    24A1     0.148111    18B1     0.163992  
      25A1     0.168318     7A2     0.186885    11B2     0.195763  
      26A1     0.227064    19B1     0.237091    20B1     0.243500  
      12B2     0.247111    27A1     0.249877     8A2     0.251032  
      21B1     0.261304    28A1     0.274046    13B2     0.279908  
      22B1     0.337419    29A1     0.339331     9A2     0.358821  
      30A1     0.364699    10A2     0.387230    23B1     0.391711  
      31A1     0.396383    14B2     0.400719    24B1     0.494479  
      25B1     0.520409    32A1     0.525383    15B2     0.657370  
      33A1     0.665834    34A1     0.720500    26B1     0.720647  
      11A2     0.769982    16B2     0.780308    35A1     0.823165  
      27B1     0.830546    36A1     0.844400    17B2     0.850404  
      18B2     0.878816    12A2     0.880765    37A1     0.960592  
      28B1     0.963904    29B1     0.984379    38A1     0.985454  
      13A2     1.061378    30B1     1.070245    39A1     1.077089  
      14A2     1.107519    19B2     1.114665    31B1     1.274767  
      40A1     1.278769    32B1     1.303200    20B2     2.941983  
      41A1     3.017262    33B1     3.022748    15A2     3.042280  
      21B2     3.055017    34B1     3.057443    42A1     3.060333  
      43A1     3.069666    44A1     3.092274    35B1     3.180879  
      45A1     3.360211    22B2     3.378414    23B2     3.392479  
      16A2     3.393545    36B1     3.403040    46A1     3.404815  
      17A2     3.408240    37B1     3.408716    24B2     3.408998  
      18A2     3.410590    47A1     3.410797    38B1     3.411379  
      48A1     3.415578    19A2     3.420595    25B2     3.421547  
      39B1     3.426011    26B2     3.428264    40B1     3.454239  
      49A1     3.455121    50A1     3.459649    41B1     3.488198  
      42B1     3.535515    51A1     3.544302    27B2     3.626108  
      52A1     3.630798    20A2     3.632037    28B2     3.659573  
      43B1     3.681866    53A1     3.692931    21A2     3.708074  
      22A2     3.750143    29B2     3.762274    54A1     3.886346  
      44B1     3.887906    55A1     3.901075    45B1     3.955300  
      46B1     4.190574    56A1     4.196808    57A1    12.694518  
      47B1    12.694769    30B2    12.694867    23A2    12.694990  
      58A1    12.695163    48B1    12.695403    24A2    12.695560  
      31B2    12.695662    49B1    12.696446    59A1    12.696470  
      25A2    12.696989    50B1    12.697168    32B2    12.697251  
      60A1    12.697704    61A1    12.698411    51B1    12.698422  
      26A2    12.698444    33B2    12.698470    62A1    12.709659  
      52B1    12.710351    34B2    12.711104    27A2    12.711574  
      53B1    12.712821    63A1    12.713255    35B2    12.713483  
      28A2    12.714024    64A1    12.714093    36B2    12.854602  
      37B2    12.856138    65A1    12.856142    54B1    12.856426  
      29A2    12.856897    30A2    12.857103    66A1    12.857507  
      67A1    12.858700    55B1    12.859386    38B2    12.862878  
      31A2    12.867388    56B1    12.868593    39B2    12.871263  
      68A1    12.873192    57B1    12.873922    32A2    12.879838  
      69A1    12.880925    40B2    12.882423    58B1    12.948203  
      70A1    12.956309    59B1    12.959160  

    Final Occupation by Irrep:
             A1    A2    B1    B2 
    DOCC [    18,    5,   13,    7 ]
    SOCC [     1,    0,    0,    0 ]

  @DF-UKS Final Energy: -4922.36371636709555

   => Energetics <=

    Nuclear Repulsion Energy =            572.3288892399986025
    One-Electron Energy =               -8005.5167517022346146
    Two-Electron Energy =                2626.6439365680366791
    DFT Exchange-Correlation Energy =    -115.8196974928956990
    Empirical Dispersion Energy =          -0.0000929800000000
    VV10 Nonlocal Energy =                  0.0000000000000000
    Total Energy =                      -4922.3637163670946393

  UHF NO Occupations:
  HONO-2 :   13 B1 1.9984404
  HONO-1 :   18 A1 1.9935064
  HONO-0 :   19 A1 1.0000000
  LUNO+0 :   20 A1 0.0064936
  LUNO+1 :   14 B1 0.0015596
  LUNO+2 :   15 B1 0.0002189
  LUNO+3 :   21 A1 0.0001977


Computation Completed


Properties will be evaluated at   0.000000,   0.000000,   0.000000 [a0]

Properties computed using the SCF density matrix

  Nuclear Dipole Moment: [e a0]
     X:    -0.0000      Y:    -0.0000      Z:     0.0000

  Electronic Dipole Moment: [e a0]
     X:     0.0000      Y:     0.0000      Z:    -0.3149

  Dipole Moment: [e a0]
     X:    -0.0000      Y:    -0.0000      Z:    -0.3149     Total:     0.3149

  Dipole Moment: [D]
     X:    -0.0000      Y:    -0.0000      Z:    -0.8005     Total:     0.8005


*** tstop() called on compute145.bc4.acrc.priv at Tue Nov  2 10:27:59 2021
Module time:
	user time   =     679.60 seconds =      11.33 minutes
	system time =      24.12 seconds =       0.40 minutes
	total time  =         29 seconds =       0.48 minutes
Total time:
	user time   =     679.60 seconds =      11.33 minutes
	system time =      24.12 seconds =       0.40 minutes
	total time  =         29 seconds =       0.48 minutes

*** tstart() called on compute145.bc4.acrc.priv
*** at Tue Nov  2 10:27:59 2021


         ------------------------------------------------------------
                                   SCF GRAD                          
                          Rob Parrish, Justin Turney,                
                       Andy Simmonett, and Alex Sokolov              
         ------------------------------------------------------------

  ==> Geometry <==

    Molecular point group: c2v
    Full point group: C2v

    Geometry (in Angstrom), charge = 0, multiplicity = 2:

       Center              X                  Y                   Z               Mass       
    ------------   -----------------  -----------------  -----------------  -----------------
         CU           0.000000000000    -0.000000000000     1.346828000000    62.929597720000
         CU           1.166387000000     0.000000000000    -0.673414000000    62.929597720000
         CU          -1.166387000000    -0.000000000000    -0.673414000000    62.929597720000

  Nuclear repulsion =  572.328889239998603

  ==> Basis Set <==

  Basis Set: DEF2-TZVPPD
    Blend: DEF2-TZVPPD
    Number of shells: 57
    Number of basis functions: 201
    Number of Cartesian functions: 249
    Spherical Harmonics?: true
    Max angular momentum: 4

  ==> DFJKGrad: Density-Fitted SCF Gradients <==

    Gradient:                    1
    J tasked:                  Yes
    K tasked:                  Yes
    wK tasked:                  No
    OpenMP threads:             28
    Integrals threads:          28
    Memory [MiB]:            85830
    Schwarz Cutoff:          1E-12
    Fitting Condition:       1E-10

   => Auxiliary Basis Set <=

  Basis Set: (DEF2-TZVPPD AUX)
    Blend: DEF2-UNIVERSAL-JKFIT
    Number of shells: 174
    Number of basis functions: 792
    Number of Cartesian functions: 1131
    Spherical Harmonics?: true
    Max angular momentum: 6

  ==> DFT Potential <==

   => Composite Functional: MN15-D3BJ <= 

   MN15 Hybrid Meta-GGA Exchange-Correlation Functional

    H. S. Yu, X. He, S. L. Li, and D. G. Truhlar, Chem. Sci. 7, 5032-5051, 2016


    Deriv               =              1
    GGA                 =           TRUE
    Meta                =           TRUE

    Exchange Hybrid     =           TRUE
    MP2 Hybrid          =          FALSE

   => Exchange Functionals <=

    1.0000   XC_HYB_MGGA_X_MN15

   => Exact (HF) Exchange <=

    0.4400               HF 

   => Correlation Functionals <=

    1.0000   XC_MGGA_C_MN15

   => LibXC Density Thresholds  <==

    XC_MGGA_C_MN15:  1.00E-15 
    XC_HYB_MGGA_X_MN15:  1.00E-15 

   => Molecular Quadrature <=

    Radial Scheme          =       TREUTLER
    Pruning Scheme         =           NONE
    Nuclear Scheme         =       TREUTLER

    BS radius alpha        =              1
    Pruning alpha          =              1
    Radial Points          =             75
    Spherical Points       =            302
    Total Points           =          65289
    Total Blocks           =            594
    Max Points             =            255
    Max Functions          =            191
    Weights Tolerance      =       1.00E-15


  -Total Gradient:
     Atom            X                  Y                   Z
    ------   -----------------  -----------------  -----------------
       1        0.000000000000     0.000000000000    -0.018593538328
       2        0.000178567998     0.000000000000     0.009323110069
       3       -0.000178567998    -0.000000000000     0.009323110069


*** tstop() called on compute145.bc4.acrc.priv at Tue Nov  2 10:28:18 2021
Module time:
	user time   =     126.21 seconds =       2.10 minutes
	system time =       6.82 seconds =       0.11 minutes
	total time  =         19 seconds =       0.32 minutes
Total time:
	user time   =     807.52 seconds =      13.46 minutes
	system time =      31.01 seconds =       0.52 minutes
	total time  =         48 seconds =       0.80 minutes

			-----------------------------------------
			 OPTKING 2.0: for geometry optimizations 
			  - R.A. King,  Bethel University        
			-----------------------------------------
	At level 1: Red. Int., RFO, no backsteps, dynamic trust

	Internal coordinates to be generated automatically.
	Detected frag 1 with atoms:  1 2 3
	---Fragment 1 Bond Connectivity---
	 1 : 2 3
	 2 : 1 3
	 3 : 1 2

	---Fragment 1 Geometry and Gradient---
	 CU          0.0000000000       -0.0000000000        2.5451360581
	 CU          2.2041519863        0.0000000000       -1.2725680290
	 CU         -2.2041519863       -0.0000000000       -1.2725680290
	             0.0000000000        0.0000000000       -0.0185935383
	             0.0001785680        0.0000000000        0.0093231101
	            -0.0001785680       -0.0000000000        0.0093231101

	Previous optimization step data not found.  Starting new optimization.

	---Fragment 1 Intrafragment Coordinates---
	 - Coordinate -           - BOHR/RAD -       - ANG/DEG -
	 R(1,2)           =         4.408305	       2.332774
	 R(1,3)           =         4.408305	       2.332774
	 R(2,3)           =         4.408304	       2.332774
	 B(1,2,3)         =         1.047198	      60.000006
	 B(1,3,2)         =         1.047198	      60.000006
	 B(2,1,3)         =         1.047197	      59.999989

	Current energy   :     -4922.3637163671

	Generating empirical Hessian (Schlegel '84) for each fragment.
	Taking RFO optimization step.
	Going to follow RFO solution 1.
	Using RFO vector 1.
	Norm of target step-size    0.10552
	Projected energy change by RFO approximation:        -0.0010347388

	Back-transformation to cartesian coordinates...
	Successfully converged to displaced geometry.

	--- Internal Coordinate Step in ANG or DEG, aJ/ANG or AJ/DEG ---
	 ---------------------------------------------------------------------------
	   Coordinate                Previous        Force       Change         New 
	   ----------                --------       ------       ------       ------
	    1 R(1,2)          =      2.332774     0.082541     0.036932     2.369706
	    2 R(1,3)          =      2.332774     0.082541     0.036932     2.369706
	    3 R(2,3)          =      2.332774    -0.033764    -0.012257     2.320517
	    4 B(1,2,3)        =     60.000006     0.000141     0.684305    60.684310
	    5 B(1,3,2)        =     60.000006     0.000141     0.684305    60.684310
	    6 B(2,1,3)        =     59.999989    -0.000281    -1.368609    58.631379
	 ---------------------------------------------------------------------------
	Successfully symmetrized geometry.

  ==> Convergence Check <==

  Measures of convergence in internal coordinates in au.
  Criteria marked as inactive (o), active & met (*), and active & unmet ( ).
  --------------------------------------------------------------------------------------------- ~
   Step     Total Energy     Delta E     MAX Force     RMS Force      MAX Disp      RMS Disp    ~
  --------------------------------------------------------------------------------------------- ~
    Convergence Criteria    1.00e-06 *    3.00e-04 *             o    1.20e-03 *             o  ~
  --------------------------------------------------------------------------------------------- ~
      1   -4922.36371637   -4.92e+03      1.00e-02      6.30e-03 o    6.98e-02      4.31e-02 o  ~
  ---------------------------------------------------------------------------------------------

	Writing optimization data to binary file.
	Structure for next step:
	Cartesian Geometry (in Angstrom)
	   CU     0.0000000000   0.0000000000   1.3774870361
	   CU     1.1602586153   0.0000000000  -0.6887435181
	   CU    -1.1602586153  -0.0000000000  -0.6887435181
			--------------------------
			 OPTKING Finished Execution 
			--------------------------

    Structure for next step:
    Molecular point group: c2v
    Full point group: C2v

    Geometry (in Angstrom), charge = 0, multiplicity = 2:

    CU           0.000000000000    -0.000000000000     1.377487041524
    CU           1.160258619821     0.000000000000    -0.688743520762
    CU          -1.160258619821    -0.000000000000    -0.688743520762


Scratch directory: /tmp/
gradient() will perform analytic gradient computation.

*** tstart() called on compute145.bc4.acrc.priv
*** at Tue Nov  2 10:28:18 2021

   => Loading Basis Set <=

    Name: DEF2-TZVPPD
    Role: ORBITAL
    Keyword: BASIS
    atoms 1-3 entry CU         line  1290 file /mnt/storage/home/zw18965/.conda/envs/p4env/share/psi4/basis/def2-tzvppd.gbs 

   => MN15-D3(BJ): Empirical Dispersion <=

    Grimme's -D3 (BJ-damping) Dispersion Correction
    Grimme S.; Ehrlich S.; Goerigk L. (2011), J. Comput. Chem., 32: 1456
    Parametrisation from:    L. Goerigk, A. Hansen, C. Bauer, S. Ehrlich, A. Najibi, S. Grimme, Phys. Chem. Chem. Phys. 19, 32184-32215, 2017

        s6 =       1.000000
        s8 =       2.097100
        a1 =       0.786200
        a2 =       7.592300


         ---------------------------------------------------------
                                   SCF
               by Justin Turney, Rob Parrish, Andy Simmonett
                          and Daniel G. A. Smith
                              UKS Reference
                       28 Threads, 114440 MiB Core
         ---------------------------------------------------------

  ==> Geometry <==

    Molecular point group: c2v
    Full point group: C2v

    Geometry (in Angstrom), charge = 0, multiplicity = 2:

       Center              X                  Y                   Z               Mass       
    ------------   -----------------  -----------------  -----------------  -----------------
         CU           0.000000000000    -0.000000000000     1.377487041524    62.929597720000
         CU           1.160258619821     0.000000000000    -0.688743520762    62.929597720000
         CU          -1.160258619821    -0.000000000000    -0.688743520762    62.929597720000

  Running in c2v symmetry.

  Rotational constants: A =      0.09950  B =      0.09412  C =      0.04837 [cm^-1]
  Rotational constants: A =   2982.78974  B =   2821.60321  C =   1449.97921 [MHz]
  Nuclear repulsion =  567.390021592460698

  Charge       = 0
  Multiplicity = 2
  Electrons    = 87
  Nalpha       = 44
  Nbeta        = 43

  ==> Algorithm <==

  SCF Algorithm Type is DF.
  DIIS enabled.
  MOM disabled.
  Fractional occupation disabled.
  Guess Type is READ.
  Energy threshold   = 1.00e-08
  Density threshold  = 1.00e-08
  Integral threshold = 1.00e-12

  ==> Primary Basis <==

  Basis Set: DEF2-TZVPPD
    Blend: DEF2-TZVPPD
    Number of shells: 57
    Number of basis functions: 201
    Number of Cartesian functions: 249
    Spherical Harmonics?: true
    Max angular momentum: 4

  ==> DFT Potential <==

   => Composite Functional: MN15-D3BJ <= 

   MN15 Hybrid Meta-GGA Exchange-Correlation Functional

    H. S. Yu, X. He, S. L. Li, and D. G. Truhlar, Chem. Sci. 7, 5032-5051, 2016


    Deriv               =              1
    GGA                 =           TRUE
    Meta                =           TRUE

    Exchange Hybrid     =           TRUE
    MP2 Hybrid          =          FALSE

   => Exchange Functionals <=

    1.0000   XC_HYB_MGGA_X_MN15

   => Exact (HF) Exchange <=

    0.4400               HF 

   => Correlation Functionals <=

    1.0000   XC_MGGA_C_MN15

   => LibXC Density Thresholds  <==

    XC_MGGA_C_MN15:  1.00E-15 
    XC_HYB_MGGA_X_MN15:  1.00E-15 

   => Molecular Quadrature <=

    Radial Scheme          =       TREUTLER
    Pruning Scheme         =           NONE
    Nuclear Scheme         =       TREUTLER

    BS radius alpha        =              1
    Pruning alpha          =              1
    Radial Points          =             75
    Spherical Points       =            302
    Total Points           =          65305
    Total Blocks           =            592
    Max Points             =            253
    Max Functions          =            190
    Weights Tolerance      =       1.00E-15

   => Loading Basis Set <=

    Name: (DEF2-TZVPPD AUX)
    Role: JKFIT
    Keyword: DF_BASIS_SCF
    atoms 1-3 entry CU         line  2356 file /mnt/storage/home/zw18965/.conda/envs/p4env/share/psi4/basis/def2-universal-jkfit.gbs 

   => Loading Basis Set <=

    Name: DEF2-TZVPPD
    Role: ORBITAL
    Keyword: BASIS
    atoms 1-3 entry CU         line  1290 file /mnt/storage/home/zw18965/.conda/envs/p4env/share/psi4/basis/def2-tzvppd.gbs 

  Reading orbitals from file /tmp/Cu03N0_D3H.default.23501.180.npy, no projection.

  ==> Integral Setup <==

  DFHelper Memory: AOs need 0.246 GiB; user supplied 83.240 GiB. Using in-core AOs.

  ==> MemDFJK: Density-Fitted J/K Matrices <==

    J tasked:                   Yes
    K tasked:                   Yes
    wK tasked:                   No
    OpenMP threads:              28
    Memory [MiB]:             85237
    Algorithm:                 Core
    Schwarz Cutoff:           1E-12
    Mask sparsity (%):       7.1087
    Fitting Condition:        1E-10

   => Auxiliary Basis Set <=

  Basis Set: (DEF2-TZVPPD AUX)
    Blend: DEF2-UNIVERSAL-JKFIT
    Number of shells: 174
    Number of basis functions: 792
    Number of Cartesian functions: 1131
    Spherical Harmonics?: true
    Max angular momentum: 6

  Cached 100.0% of DFT collocation blocks in 0.579 [GiB].

  Minimum eigenvalue in the overlap matrix is 6.6483368367E-04.
  Reciprocal condition number of the overlap matrix is 1.2844106604E-04.
    Using symmetric orthogonalization.

  ==> Pre-Iterations <==

  SCF Guess: Orbitals guess was supplied from a previous computation.

   -------------------------------------------------------
    Irrep   Nso     Nmo     Nalpha   Nbeta   Ndocc  Nsocc
   -------------------------------------------------------
     A1        70      70      19      18      18       1
     A2        32      32       5       5       5       0
     B1        59      59      13      13      13       0
     B2        40      40       7       7       7       0
   -------------------------------------------------------
    Total     201     201      44      43      43       1
   -------------------------------------------------------

  ==> Iterations <==

                           Total Energy        Delta E     RMS |[F,P]|

   @DF-UKS iter   0: -4922.38875679250032   -4.92239e+03   1.52407e-03 
   @DF-UKS iter   1: -4922.36502805439704    2.37287e-02   8.39841e-05 DIIS
   @DF-UKS iter   2: -4922.36496188610181    6.61683e-05   2.29232e-04 DIIS
   @DF-UKS iter   3: -4922.36504542157218   -8.35355e-05   1.59366e-05 DIIS
   @DF-UKS iter   4: -4922.36504617445553   -7.52883e-07   1.05486e-05 DIIS
   @DF-UKS iter   5: -4922.36504637581766   -2.01362e-07   4.45935e-06 DIIS
   @DF-UKS iter   6: -4922.36504647230777   -9.64901e-08   9.47890e-07 DIIS
   @DF-UKS iter   7: -4922.36504649496328   -2.26555e-08   3.76123e-07 DIIS
   @DF-UKS iter   8: -4922.36504649864401   -3.68073e-09   1.57494e-07 DIIS
   @DF-UKS iter   9: -4922.36504649926519   -6.21185e-10   4.50691e-08 DIIS
   @DF-UKS iter  10: -4922.36504649934705   -8.18545e-11   2.01722e-08 DIIS
   @DF-UKS iter  11: -4922.36504649935705   -1.00044e-11   8.44936e-09 DIIS
  Energy and wave function converged.


  ==> Post-Iterations <==

   Electrons on quadrature grid:
      Nalpha   =   43.9999941034 ; deviation = -5.897e-06
      Nbeta    =   42.9999937795 ; deviation = -6.220e-06
      Ntotal   =   86.9999878830 ; deviation = -1.212e-05 

   @Spin Contamination Metric:   1.815959679E-02
   @S^2 Expected:                7.500000000E-01
   @S^2 Observed:                7.681595968E-01
   @S   Expected:                5.000000000E-01
   @S   Observed:                5.000000000E-01

    Orbital Energies [Eh]
    ---------------------

    Alpha Occupied:                                                       

       1B1  -320.707835     1A1  -320.707824     2A1  -320.691820  
       2B1   -37.878568     3A1   -37.878408     4A1   -37.864715  
       3B1   -33.730121     5A1   -33.730108     4B1   -33.727920  
       6A1   -33.727910     1A2   -33.727144     1B2   -33.727136  
       7A1   -33.715131     5B1   -33.714895     2B2   -33.712381  
       8A1    -4.098605     6B1    -4.098097     9A1    -4.083595  
      10A1    -2.771877     7B1    -2.768866    11A1    -2.768293  
       3B2    -2.767067     2A2    -2.766725     8B1    -2.766644  
      12A1    -2.754289     9B1    -2.752684     4B2    -2.749431  
      13A1    -0.375929    14A1    -0.361360     5B2    -0.358313  
      10B1    -0.352663    15A1    -0.345712     6B2    -0.344436  
       3A2    -0.338596    11B1    -0.326048     4A2    -0.322372  
      12B1    -0.321724    16A1    -0.315544     5A2    -0.313984  
      17A1    -0.312394     7B2    -0.311375    13B1    -0.300300  
      18A1    -0.287367    19A1    -0.166890  

    Alpha Virtual:                                                        

      14B1    -0.085349     8B2    -0.034123    20A1    -0.008657  
      15B1     0.011644    21A1     0.024245     9B2     0.049682  
       6A2     0.063810    22A1     0.070779    16B1     0.074494  
      17B1     0.109727    23A1     0.135240    10B2     0.138132  
      24A1     0.143049    25A1     0.154541    18B1     0.156730  
       7A2     0.191487    11B2     0.193482    26A1     0.211853  
      27A1     0.228153    19B1     0.233255     8A2     0.235193  
      12B2     0.241140    20B1     0.243268    28A1     0.252347  
      21B1     0.255778    13B2     0.269366    29A1     0.324659  
      22B1     0.324983     9A2     0.349876    30A1     0.359668  
      23B1     0.379845    31A1     0.382234    10A2     0.382543  
      14B2     0.383867    24B1     0.487842    32A1     0.518494  
      25B1     0.523367    15B2     0.666119    33A1     0.666983  
      34A1     0.713578    26B1     0.721497    16B2     0.774238  
      11A2     0.774681    35A1     0.816349    27B1     0.831699  
      36A1     0.836602    17B2     0.846181    18B2     0.869991  
      12A2     0.878973    37A1     0.958990    28B1     0.964214  
      29B1     0.972321    38A1     0.977162    13A2     1.051528  
      39A1     1.062430    30B1     1.063235    19B2     1.106529  
      14A2     1.107795    40A1     1.264752    31B1     1.275266  
      32B1     1.293272    20B2     2.940535    33B1     3.008059  
      41A1     3.010313    15A2     3.042737    21B2     3.048090  
      42A1     3.057041    34B1     3.058641    43A1     3.072465  
      44A1     3.083949    35B1     3.179858    45A1     3.358021  
      22B2     3.377989    23B2     3.387076    16A2     3.391353  
      46A1     3.402912    36B1     3.403759    24B2     3.407324  
      37B1     3.407529    47A1     3.407682    17A2     3.407991  
      38B1     3.409955    18A2     3.410529    48A1     3.412300  
      19A2     3.417170    25B2     3.417411    39B1     3.422424  
      26B2     3.424542    49A1     3.447589    40B1     3.448396  
      50A1     3.450921    41B1     3.475100    51A1     3.528138  
      42B1     3.533993    27B2     3.623043    20A2     3.624644  
      52A1     3.624908    28B2     3.652998    43B1     3.675470  
      53A1     3.682678    21A2     3.700786    22A2     3.747070  
      29B2     3.752946    44B1     3.869444    54A1     3.875723  
      55A1     3.885986    45B1     3.942766    46B1     4.172846  
      56A1     4.178582    57A1    12.695212    47B1    12.695440  
      30B2    12.695702    23A2    12.695761    58A1    12.695980  
      48B1    12.696067    24A2    12.696391    31B2    12.696437  
      59A1    12.697252    49B1    12.697403    25A2    12.697681  
      50B1    12.697787    32B2    12.697839    60A1    12.698086  
      61A1    12.699364    51B1    12.699367    26A2    12.699423  
      33B2    12.699428    62A1    12.711267    52B1    12.712153  
      34B2    12.713255    27A2    12.713359    53B1    12.714860  
      63A1    12.715144    35B2    12.715258    64A1    12.716425  
      28A2    12.716476    36B2    12.854938    65A1    12.856208  
      37B2    12.856599    54B1    12.857397    29A2    12.857401  
      30A2    12.857473    66A1    12.857848    67A1    12.858792  
      55B1    12.861120    38B2    12.862639    31A2    12.868659  
      56B1    12.869890    39B2    12.872428    68A1    12.874559  
      57B1    12.874612    69A1    12.878696    32A2    12.879037  
      40B2    12.880757    70A1    12.943411    58B1    12.943817  
      59B1    12.954962  

    Beta Occupied:                                                        

       1B1  -320.707720     1A1  -320.707709     2A1  -320.691467  
       2B1   -37.878436     3A1   -37.878277     4A1   -37.864769  
       3B1   -33.730200     5A1   -33.730190     4B1   -33.728035  
       6A1   -33.728020     1A2   -33.726986     1B2   -33.726978  
       7A1   -33.716572     5B1   -33.714562     2B2   -33.712208  
       8A1    -4.098328     6B1    -4.097819     9A1    -4.082279  
      10A1    -2.771880     7B1    -2.767904    11A1    -2.767668  
       3B2    -2.767158     8B1    -2.767041     2A2    -2.766821  
       9B1    -2.752884    12A1    -2.752817     4B2    -2.749659  
      13A1    -0.374296    14A1    -0.360372     5B2    -0.358115  
      10B1    -0.350123    15A1    -0.344136     6B2    -0.343911  
       3A2    -0.337876    11B1    -0.326040     4A2    -0.322831  
      12B1    -0.321026    16A1    -0.314806     5A2    -0.313089  
       7B2    -0.309064    17A1    -0.308550    13B1    -0.296919  
      18A1    -0.277895  

    Beta Virtual:                                                         

      14B1    -0.076374    19A1    -0.055743     8B2    -0.026235  
      20A1     0.025405    15B1     0.046944    21A1     0.051565  
       6A2     0.070646    16B1     0.078368     9B2     0.084582  
      22A1     0.088904    17B1     0.130673    23A1     0.137047  
      10B2     0.145721    24A1     0.148179    18B1     0.164371  
      25A1     0.167799     7A2     0.187455    11B2     0.195072  
      26A1     0.226341    19B1     0.237141    20B1     0.243037  
      12B2     0.247049    27A1     0.249159     8A2     0.250201  
      21B1     0.260773    28A1     0.271546    13B2     0.278550  
      22B1     0.336702    29A1     0.338107     9A2     0.358271  
      30A1     0.365255    10A2     0.387020    23B1     0.391296  
      31A1     0.395119    14B2     0.399094    24B1     0.493790  
      32A1     0.518772    25B1     0.519832    15B2     0.661178  
      33A1     0.665690    34A1     0.717078    26B1     0.722281  
      11A2     0.771012    16B2     0.777913    35A1     0.825047  
      27B1     0.830316    36A1     0.841636    17B2     0.849366  
      18B2     0.876926    12A2     0.884129    28B1     0.959908  
      37A1     0.961126    29B1     0.979069    38A1     0.983758  
      13A2     1.059338    30B1     1.070125    39A1     1.070486  
      14A2     1.107623    19B2     1.108840    40A1     1.266396  
      31B1     1.274190    32B1     1.299614    20B2     2.942337  
      33B1     3.012398    41A1     3.015076    15A2     3.043399  
      21B2     3.053999    42A1     3.059673    34B1     3.060585  
      43A1     3.078458    44A1     3.087592    35B1     3.186223  
      45A1     3.362835    22B2     3.378368    23B2     3.393145  
      16A2     3.397316    46A1     3.405284    36B1     3.405825  
      24B2     3.409391    17A2     3.409413    47A1     3.410262  
      37B1     3.410307    18A2     3.411224    38B1     3.413026  
      48A1     3.417161    19A2     3.421613    25B2     3.422641  
      39B1     3.427180    26B2     3.429893    49A1     3.452863  
      40B1     3.453227    50A1     3.457656    41B1     3.478021  
      51A1     3.533161    42B1     3.535914    27B2     3.626408  
      20A2     3.628299    52A1     3.629026    28B2     3.654035  
      43B1     3.681449    53A1     3.690745    21A2     3.707161  
      22A2     3.748442    29B2     3.759757    44B1     3.874537  
      54A1     3.878871    55A1     3.888982    45B1     3.951633  
      46B1     4.172480    56A1     4.181627    57A1    12.695166  
      47B1    12.695413    30B2    12.695484    58A1    12.695641  
      23A2    12.695659    48B1    12.696014    24A2    12.696090  
      31B2    12.696150    59A1    12.696914    49B1    12.696989  
      25A2    12.697560    32B2    12.697800    50B1    12.697811  
      60A1    12.698363    61A1    12.698973    51B1    12.698981  
      26A2    12.699079    33B2    12.699110    62A1    12.711352  
      52B1    12.712173    34B2    12.712858    27A2    12.713148  
      53B1    12.714430    63A1    12.714842    35B2    12.715014  
      28A2    12.715529    64A1    12.715567    36B2    12.854973  
      65A1    12.856451    37B2    12.856675    54B1    12.857522  
      29A2    12.857590    66A1    12.857970    30A2    12.858083  
      67A1    12.859148    55B1    12.861900    38B2    12.863334  
      31A2    12.868769    56B1    12.870207    39B2    12.872931  
      57B1    12.874960    68A1    12.875376    32A2    12.879822  
      69A1    12.879962    40B2    12.881756    70A1    12.944172  
      58B1    12.944931    59B1    12.955338  

    Final Occupation by Irrep:
             A1    A2    B1    B2 
    DOCC [    18,    5,   13,    7 ]
    SOCC [     1,    0,    0,    0 ]

  @DF-UKS Final Energy: -4922.36504649935705

   => Energetics <=

    Nuclear Repulsion Energy =            567.3900215924606982
    One-Electron Energy =               -7995.7304381597914471
    Two-Electron Energy =                2621.7925353570758489
    DFT Exchange-Correlation Energy =    -115.8170723091021728
    Empirical Dispersion Energy =          -0.0000929800000000
    VV10 Nonlocal Energy =                  0.0000000000000000
    Total Energy =                      -4922.3650464993579590

  UHF NO Occupations:
  HONO-2 :   13 B1 1.9984860
  HONO-1 :   18 A1 1.9933501
  HONO-0 :   19 A1 1.0000000
  LUNO+0 :   20 A1 0.0066499
  LUNO+1 :   14 B1 0.0015140
  LUNO+2 :   15 B1 0.0002120
  LUNO+3 :   21 A1 0.0001949


Computation Completed


Properties will be evaluated at   0.000000,   0.000000,   0.000000 [a0]

Properties computed using the SCF density matrix

  Nuclear Dipole Moment: [e a0]
     X:     0.0000      Y:    -0.0000      Z:     0.0000

  Electronic Dipole Moment: [e a0]
     X:     0.0000      Y:     0.0000      Z:    -0.3213

  Dipole Moment: [e a0]
     X:     0.0000      Y:    -0.0000      Z:    -0.3213     Total:     0.3213

  Dipole Moment: [D]
     X:     0.0000      Y:    -0.0000      Z:    -0.8166     Total:     0.8166


*** tstop() called on compute145.bc4.acrc.priv at Tue Nov  2 10:28:34 2021
Module time:
	user time   =     411.29 seconds =       6.85 minutes
	system time =      11.81 seconds =       0.20 minutes
	total time  =         16 seconds =       0.27 minutes
Total time:
	user time   =    1219.46 seconds =      20.32 minutes
	system time =      42.85 seconds =       0.71 minutes
	total time  =         64 seconds =       1.07 minutes

*** tstart() called on compute145.bc4.acrc.priv
*** at Tue Nov  2 10:28:34 2021


         ------------------------------------------------------------
                                   SCF GRAD                          
                          Rob Parrish, Justin Turney,                
                       Andy Simmonett, and Alex Sokolov              
         ------------------------------------------------------------

  ==> Geometry <==

    Molecular point group: c2v
    Full point group: C2v

    Geometry (in Angstrom), charge = 0, multiplicity = 2:

       Center              X                  Y                   Z               Mass       
    ------------   -----------------  -----------------  -----------------  -----------------
         CU           0.000000000000    -0.000000000000     1.377487041524    62.929597720000
         CU           1.160258619821     0.000000000000    -0.688743520762    62.929597720000
         CU          -1.160258619821    -0.000000000000    -0.688743520762    62.929597720000

  Nuclear repulsion =  567.390021592460698

  ==> Basis Set <==

  Basis Set: DEF2-TZVPPD
    Blend: DEF2-TZVPPD
    Number of shells: 57
    Number of basis functions: 201
    Number of Cartesian functions: 249
    Spherical Harmonics?: true
    Max angular momentum: 4

  ==> DFJKGrad: Density-Fitted SCF Gradients <==

    Gradient:                    1
    J tasked:                  Yes
    K tasked:                  Yes
    wK tasked:                  No
    OpenMP threads:             28
    Integrals threads:          28
    Memory [MiB]:            85830
    Schwarz Cutoff:          1E-12
    Fitting Condition:       1E-10

   => Auxiliary Basis Set <=

  Basis Set: (DEF2-TZVPPD AUX)
    Blend: DEF2-UNIVERSAL-JKFIT
    Number of shells: 174
    Number of basis functions: 792
    Number of Cartesian functions: 1131
    Spherical Harmonics?: true
    Max angular momentum: 6

  ==> DFT Potential <==

   => Composite Functional: MN15-D3BJ <= 

   MN15 Hybrid Meta-GGA Exchange-Correlation Functional

    H. S. Yu, X. He, S. L. Li, and D. G. Truhlar, Chem. Sci. 7, 5032-5051, 2016


    Deriv               =              1
    GGA                 =           TRUE
    Meta                =           TRUE

    Exchange Hybrid     =           TRUE
    MP2 Hybrid          =          FALSE

   => Exchange Functionals <=

    1.0000   XC_HYB_MGGA_X_MN15

   => Exact (HF) Exchange <=

    0.4400               HF 

   => Correlation Functionals <=

    1.0000   XC_MGGA_C_MN15

   => LibXC Density Thresholds  <==

    XC_MGGA_C_MN15:  1.00E-15 
    XC_HYB_MGGA_X_MN15:  1.00E-15 

   => Molecular Quadrature <=

    Radial Scheme          =       TREUTLER
    Pruning Scheme         =           NONE
    Nuclear Scheme         =       TREUTLER

    BS radius alpha        =              1
    Pruning alpha          =              1
    Radial Points          =             75
    Spherical Points       =            302
    Total Points           =          65305
    Total Blocks           =            592
    Max Points             =            253
    Max Functions          =            190
    Weights Tolerance      =       1.00E-15


  -Total Gradient:
     Atom            X                  Y                   Z
    ------   -----------------  -----------------  -----------------
       1        0.000000000000    -0.000000000000    -0.011989635510
       2        0.000638090834     0.000000000000     0.006032256812
       3       -0.000638090834    -0.000000000000     0.006032256812


*** tstop() called on compute145.bc4.acrc.priv at Tue Nov  2 10:28:53 2021
Module time:
	user time   =     120.87 seconds =       2.01 minutes
	system time =       3.62 seconds =       0.06 minutes
	total time  =         19 seconds =       0.32 minutes
Total time:
	user time   =    1343.64 seconds =      22.39 minutes
	system time =      46.64 seconds =       0.78 minutes
	total time  =         83 seconds =       1.38 minutes

			-----------------------------------------
			 OPTKING 2.0: for geometry optimizations 
			  - R.A. King,  Bethel University        
			-----------------------------------------
	At level 1: Red. Int., RFO, no backsteps, dynamic trust

	Previous internal coordinate definitions found.
	---Fragment 1 Geometry and Gradient---
	 CU          0.0000000000       -0.0000000000        2.6030732498
	 CU          2.1925710262        0.0000000000       -1.3015366249
	 CU         -2.1925710262       -0.0000000000       -1.3015366249
	             0.0000000000       -0.0000000000       -0.0119896355
	             0.0006380908        0.0000000000        0.0060322568
	            -0.0006380908       -0.0000000000        0.0060322568

	---Fragment 1 Intrafragment Coordinates---
	 - Coordinate -           - BOHR/RAD -       - ANG/DEG -
	 R(1,2)           =         4.478096	       2.369706
	 R(1,3)           =         4.478096	       2.369706
	 R(2,3)           =         4.385142	       2.320517
	 B(1,2,3)         =         1.059141	      60.684310
	 B(1,3,2)         =         1.059141	      60.684310
	 B(2,1,3)         =         1.023311	      58.631379

	Current energy   :     -4922.3650464994

	Energy change for the previous step:
		Projected    :        -0.0010347388
		Actual       :        -0.0013301323
	Energy ratio indicates good step: Trust radius increased to 1.000e+00.


	Performing BFGS update.
	Previous computed or guess Hessian on step 1.
	Steps to be used in Hessian update: 1
	Taking RFO optimization step.
	Going to follow RFO solution 1.
	Using RFO vector 1.
	Norm of target step-size    0.18911
	Projected energy change by RFO approximation:        -0.0038823576

	Back-transformation to cartesian coordinates...
	Successfully converged to displaced geometry.

	--- Internal Coordinate Step in ANG or DEG, aJ/ANG or AJ/DEG ---
	 ---------------------------------------------------------------------------
	   Coordinate                Previous        Force       Change         New 
	   ----------                --------       ------       ------       ------
	    1 R(1,2)          =      2.369706     0.053035     0.065407     2.435113
	    2 R(1,3)          =      2.369706     0.053035     0.065407     2.435113
	    3 R(2,3)          =      2.320517    -0.025437    -0.026477     2.294040
	    4 B(1,2,3)        =     60.684310     0.000092     1.214287    61.898597
	    5 B(1,3,2)        =     60.684310     0.000092     1.214287    61.898597
	    6 B(2,1,3)        =     58.631379    -0.000183    -2.428573    56.202806
	 ---------------------------------------------------------------------------
	Successfully symmetrized geometry.

  ==> Convergence Check <==

  Measures of convergence in internal coordinates in au.
  Criteria marked as inactive (o), active & met (*), and active & unmet ( ).
  ---------------------------------------------------------------------------------------------
   Step     Total Energy     Delta E     MAX Force     RMS Force      MAX Disp      RMS Disp   
  ---------------------------------------------------------------------------------------------
    Convergence Criteria    1.00e-06 *    3.00e-04 *             o    1.20e-03 *             o
  ---------------------------------------------------------------------------------------------
      2   -4922.36504650   -1.33e-03      6.44e-03      4.10e-03 o    1.24e-01      7.72e-02 o  ~
  ---------------------------------------------------------------------------------------------

	Writing optimization data to binary file.
	Structure for next step:
	Cartesian Geometry (in Angstrom)
	   CU     0.0000000000  -0.0000000000   1.4320338872
	   CU     1.1470199282   0.0000000000  -0.7160169436
	   CU    -1.1470199282  -0.0000000000  -0.7160169436
			--------------------------
			 OPTKING Finished Execution 
			--------------------------

    Structure for next step:
    Molecular point group: c2v
    Full point group: C2v

    Geometry (in Angstrom), charge = 0, multiplicity = 2:

    CU           0.000000000000     0.000000000000     1.432033892847
    CU           1.147019932686     0.000000000000    -0.716016946424
    CU          -1.147019932686    -0.000000000000    -0.716016946424


Scratch directory: /tmp/
gradient() will perform analytic gradient computation.

*** tstart() called on compute145.bc4.acrc.priv
*** at Tue Nov  2 10:28:53 2021

   => Loading Basis Set <=

    Name: DEF2-TZVPPD
    Role: ORBITAL
    Keyword: BASIS
    atoms 1-3 entry CU         line  1290 file /mnt/storage/home/zw18965/.conda/envs/p4env/share/psi4/basis/def2-tzvppd.gbs 

   => MN15-D3(BJ): Empirical Dispersion <=

    Grimme's -D3 (BJ-damping) Dispersion Correction
    Grimme S.; Ehrlich S.; Goerigk L. (2011), J. Comput. Chem., 32: 1456
    Parametrisation from:    L. Goerigk, A. Hansen, C. Bauer, S. Ehrlich, A. Najibi, S. Grimme, Phys. Chem. Chem. Phys. 19, 32184-32215, 2017

        s6 =       1.000000
        s8 =       2.097100
        a1 =       0.786200
        a2 =       7.592300


         ---------------------------------------------------------
                                   SCF
               by Justin Turney, Rob Parrish, Andy Simmonett
                          and Daniel G. A. Smith
                              UKS Reference
                       28 Threads, 114440 MiB Core
         ---------------------------------------------------------

  ==> Geometry <==

    Molecular point group: c2v
    Full point group: C2v

    Geometry (in Angstrom), charge = 0, multiplicity = 2:

       Center              X                  Y                   Z               Mass       
    ------------   -----------------  -----------------  -----------------  -----------------
         CU           0.000000000000    -0.000000000000     1.432033892847    62.929597720000
         CU           1.147019932686     0.000000000000    -0.716016946424    62.929597720000
         CU          -1.147019932686    -0.000000000000    -0.716016946424    62.929597720000

  Running in c2v symmetry.

  Rotational constants: A =      0.10181  B =      0.08709  C =      0.04694 [cm^-1]
  Rotational constants: A =   3052.04068  B =   2610.74462  C =   1407.09887 [MHz]
  Nuclear repulsion =  559.514816844792335

  Charge       = 0
  Multiplicity = 2
  Electrons    = 87
  Nalpha       = 44
  Nbeta        = 43

  ==> Algorithm <==

  SCF Algorithm Type is DF.
  DIIS enabled.
  MOM disabled.
  Fractional occupation disabled.
  Guess Type is READ.
  Energy threshold   = 1.00e-08
  Density threshold  = 1.00e-08
  Integral threshold = 1.00e-12

  ==> Primary Basis <==

  Basis Set: DEF2-TZVPPD
    Blend: DEF2-TZVPPD
    Number of shells: 57
    Number of basis functions: 201
    Number of Cartesian functions: 249
    Spherical Harmonics?: true
    Max angular momentum: 4

  ==> DFT Potential <==

   => Composite Functional: MN15-D3BJ <= 

   MN15 Hybrid Meta-GGA Exchange-Correlation Functional

    H. S. Yu, X. He, S. L. Li, and D. G. Truhlar, Chem. Sci. 7, 5032-5051, 2016


    Deriv               =              1
    GGA                 =           TRUE
    Meta                =           TRUE

    Exchange Hybrid     =           TRUE
    MP2 Hybrid          =          FALSE

   => Exchange Functionals <=

    1.0000   XC_HYB_MGGA_X_MN15

   => Exact (HF) Exchange <=

    0.4400               HF 

   => Correlation Functionals <=

    1.0000   XC_MGGA_C_MN15

   => LibXC Density Thresholds  <==

    XC_MGGA_C_MN15:  1.00E-15 
    XC_HYB_MGGA_X_MN15:  1.00E-15 

   => Molecular Quadrature <=

    Radial Scheme          =       TREUTLER
    Pruning Scheme         =           NONE
    Nuclear Scheme         =       TREUTLER

    BS radius alpha        =              1
    Pruning alpha          =              1
    Radial Points          =             75
    Spherical Points       =            302
    Total Points           =          65361
    Total Blocks           =            591
    Max Points             =            256
    Max Functions          =            191
    Weights Tolerance      =       1.00E-15

   => Loading Basis Set <=

    Name: (DEF2-TZVPPD AUX)
    Role: JKFIT
    Keyword: DF_BASIS_SCF
    atoms 1-3 entry CU         line  2356 file /mnt/storage/home/zw18965/.conda/envs/p4env/share/psi4/basis/def2-universal-jkfit.gbs 

   => Loading Basis Set <=

    Name: DEF2-TZVPPD
    Role: ORBITAL
    Keyword: BASIS
    atoms 1-3 entry CU         line  1290 file /mnt/storage/home/zw18965/.conda/envs/p4env/share/psi4/basis/def2-tzvppd.gbs 

  Reading orbitals from file /tmp/Cu03N0_D3H.default.23501.180.npy, no projection.

  ==> Integral Setup <==

  DFHelper Memory: AOs need 0.246 GiB; user supplied 83.240 GiB. Using in-core AOs.

  ==> MemDFJK: Density-Fitted J/K Matrices <==

    J tasked:                   Yes
    K tasked:                   Yes
    wK tasked:                   No
    OpenMP threads:              28
    Memory [MiB]:             85237
    Algorithm:                 Core
    Schwarz Cutoff:           1E-12
    Mask sparsity (%):       7.3365
    Fitting Condition:        1E-10

   => Auxiliary Basis Set <=

  Basis Set: (DEF2-TZVPPD AUX)
    Blend: DEF2-UNIVERSAL-JKFIT
    Number of shells: 174
    Number of basis functions: 792
    Number of Cartesian functions: 1131
    Spherical Harmonics?: true
    Max angular momentum: 6

  Cached 100.0% of DFT collocation blocks in 0.579 [GiB].

  Minimum eigenvalue in the overlap matrix is 7.3552191589E-04.
  Reciprocal condition number of the overlap matrix is 1.4300575302E-04.
    Using symmetric orthogonalization.

  ==> Pre-Iterations <==

  SCF Guess: Orbitals guess was supplied from a previous computation.

   -------------------------------------------------------
    Irrep   Nso     Nmo     Nalpha   Nbeta   Ndocc  Nsocc
   -------------------------------------------------------
     A1        70      70      19      18      18       1
     A2        32      32       5       5       5       0
     B1        59      59      13      13      13       0
     B2        40      40       7       7       7       0
   -------------------------------------------------------
    Total     201     201      44      43      43       1
   -------------------------------------------------------

  ==> Iterations <==

                           Total Energy        Delta E     RMS |[F,P]|

   @DF-UKS iter   0: -4922.40203957945232   -4.92240e+03   2.55388e-03 
   @DF-UKS iter   1: -4922.36612246786899    3.59171e-02   1.10578e-04 DIIS
   @DF-UKS iter   2: -4922.36602222548754    1.00242e-04   2.91926e-04 DIIS
   @DF-UKS iter   3: -4922.36615857725064   -1.36352e-04   2.29097e-05 DIIS
   @DF-UKS iter   4: -4922.36616066932584   -2.09208e-06   1.27376e-05 DIIS
   @DF-UKS iter   5: -4922.36616100648826   -3.37162e-07   9.50390e-06 DIIS
   @DF-UKS iter   6: -4922.36616134142605   -3.34938e-07   1.75649e-06 DIIS
   @DF-UKS iter   7: -4922.36616142258208   -8.11560e-08   6.38973e-07 DIIS
   @DF-UKS iter   8: -4922.36616143451010   -1.19280e-08   2.75231e-07 DIIS
   @DF-UKS iter   9: -4922.36616143643369   -1.92358e-09   8.74733e-08 DIIS
   @DF-UKS iter  10: -4922.36616143670472   -2.71029e-10   3.61691e-08 DIIS
   @DF-UKS iter  11: -4922.36616143674291   -3.81988e-11   1.39852e-08 DIIS
   @DF-UKS iter  12: -4922.36616143675019   -7.27596e-12   3.88540e-09 DIIS
  Energy and wave function converged.


  ==> Post-Iterations <==

   Electrons on quadrature grid:
      Nalpha   =   43.9999965374 ; deviation = -3.463e-06
      Nbeta    =   42.9999962819 ; deviation = -3.718e-06
      Ntotal   =   86.9999928193 ; deviation = -7.181e-06 

   @Spin Contamination Metric:   1.849932386E-02
   @S^2 Expected:                7.500000000E-01
   @S^2 Observed:                7.684993239E-01
   @S   Expected:                5.000000000E-01
   @S   Observed:                5.000000000E-01

    Orbital Energies [Eh]
    ---------------------

    Alpha Occupied:                                                       

       1B1  -320.707042     1A1  -320.707031     2A1  -320.689239  
       2B1   -37.877686     3A1   -37.877530     4A1   -37.861507  
       3B1   -33.729296     5A1   -33.729284     4B1   -33.727029  
       6A1   -33.727019     1A2   -33.726292     1B2   -33.726284  
       7A1   -33.711988     5B1   -33.711707     2B2   -33.709467  
       8A1    -4.097779     6B1    -4.097192     9A1    -4.080659  
      10A1    -2.771241     7B1    -2.767615    11A1    -2.767307  
       3B2    -2.766238     2A2    -2.765852     8B1    -2.765821  
      12A1    -2.751211     9B1    -2.749769     4B2    -2.746958  
      13A1    -0.372457    14A1    -0.361472     5B2    -0.356640  
      10B1    -0.347557    15A1    -0.344045     6B2    -0.343381  
       3A2    -0.335824    11B1    -0.324206     4A2    -0.320840  
      12B1    -0.320428    16A1    -0.314270     5A2    -0.312967  
      17A1    -0.312013     7B2    -0.310547    13B1    -0.300284  
      18A1    -0.285467    19A1    -0.168744  

    Alpha Virtual:                                                        

      14B1    -0.083764     8B2    -0.033461    20A1    -0.009923  
      15B1     0.011964    21A1     0.024410     9B2     0.047822  
       6A2     0.064614    22A1     0.070561    16B1     0.074755  
      17B1     0.109100    23A1     0.135651    10B2     0.138729  
      24A1     0.142566    25A1     0.154050    18B1     0.157660  
      11B2     0.191955     7A2     0.192506    26A1     0.210352  
      27A1     0.227176    19B1     0.233321     8A2     0.233635  
      12B2     0.240032    20B1     0.241722    28A1     0.248212  
      21B1     0.256789    13B2     0.268554    29A1     0.322321  
      22B1     0.323734     9A2     0.348055    30A1     0.360281  
      23B1     0.379751    14B2     0.380283    31A1     0.380578  
      10A2     0.383308    24B1     0.483409    32A1     0.506424  
      25B1     0.525815    33A1     0.666442    15B2     0.672025  
      34A1     0.707601    26B1     0.725267    16B2     0.769529  
      11A2     0.775974    35A1     0.820177    27B1     0.831359  
      36A1     0.835032    17B2     0.844145    18B2     0.868554  
      12A2     0.886110    28B1     0.955869    37A1     0.957248  
      29B1     0.963286    38A1     0.976107    13A2     1.047150  
      39A1     1.051891    30B1     1.064326    19B2     1.095360  
      14A2     1.109406    40A1     1.243446    31B1     1.264653  
      32B1     1.298731    20B2     2.941844    33B1     2.992309  
      41A1     2.994228    15A2     3.044362    21B2     3.045029  
      42A1     3.052371    34B1     3.059347    43A1     3.071893  
      44A1     3.112348    35B1     3.191359    45A1     3.362604  
      22B2     3.377334    23B2     3.388438    16A2     3.397423  
      46A1     3.403100    47A1     3.404270    36B1     3.404532  
      24B2     3.407890    17A2     3.409463    37B1     3.410272  
      18A2     3.412451    38B1     3.413574    48A1     3.415147  
      19A2     3.419332    25B2     3.419591    39B1     3.423721  
      26B2     3.426747    49A1     3.437718    40B1     3.441575  
      50A1     3.451457    41B1     3.466625    51A1     3.509808  
      42B1     3.538789    20A2     3.618192    27B2     3.619929  
      52A1     3.620822    28B2     3.647244    43B1     3.675163  
      53A1     3.680575    21A2     3.698956    22A2     3.745595  
      29B2     3.749054    54A1     3.839425    44B1     3.842297  
      55A1     3.889623    45B1     3.935361    46B1     4.147974  
      56A1     4.151208    57A1    12.696124    47B1    12.696370  
      30B2    12.696592    58A1    12.696613    23A2    12.696765  
      48B1    12.696900    31B2    12.697122    24A2    12.697142  
      59A1    12.697829    49B1    12.698187    25A2    12.698505  
      32B2    12.698651    50B1    12.698721    60A1    12.699058  
      61A1    12.700158    51B1    12.700166    26A2    12.700332  
      33B2    12.700342    62A1    12.714135    52B1    12.715076  
      27A2    12.715901    34B2    12.716173    53B1    12.717418  
      63A1    12.717706    35B2    12.717712    64A1    12.718793  
      28A2    12.718885    36B2    12.855215    65A1    12.856207  
      37B2    12.857285    66A1    12.857487    29A2    12.858317  
      54B1    12.858573    30A2    12.858709    67A1    12.859065  
      38B2    12.862687    55B1    12.864470    31A2    12.871513  
      56B1    12.872423    39B2    12.875131    57B1    12.876617  
      68A1    12.876978    69A1    12.878599    32A2    12.879942  
      40B2    12.880729    70A1    12.925454    58B1    12.927901  
      59B1    12.965108  

    Beta Occupied:                                                        

       1B1  -320.706926     1A1  -320.706915     2A1  -320.688868  
       2B1   -37.877557     3A1   -37.877400     4A1   -37.861582  
       3B1   -33.729286     5A1   -33.729277     4B1   -33.727222  
       6A1   -33.727208     1A2   -33.726144     1B2   -33.726136  
       7A1   -33.713477     5B1   -33.711412     2B2   -33.709334  
       8A1    -4.097493     6B1    -4.096905     9A1    -4.079306  
      10A1    -2.771380     7B1    -2.766798    11A1    -2.766546  
       3B2    -2.766320     8B1    -2.766073     2A2    -2.765938  
       9B1    -2.750024    12A1    -2.749806     4B2    -2.747215  
      13A1    -0.371079    14A1    -0.360361     5B2    -0.356473  
      10B1    -0.345142     6B2    -0.342763    15A1    -0.342302  
       3A2    -0.335101    11B1    -0.324158     4A2    -0.321255  
      12B1    -0.319566    16A1    -0.313496     5A2    -0.312103  
       7B2    -0.308277    17A1    -0.308214    13B1    -0.297047  
      18A1    -0.275620  

    Beta Virtual:                                                         

      14B1    -0.075126    19A1    -0.057940     8B2    -0.025581  
      20A1     0.026245    15B1     0.046663    21A1     0.048513  
       6A2     0.071152    16B1     0.078462     9B2     0.082617  
      22A1     0.089049    17B1     0.130069    23A1     0.137418  
      10B2     0.146055    24A1     0.148345    18B1     0.165070  
      25A1     0.166918     7A2     0.188553    11B2     0.193907  
      26A1     0.224984    19B1     0.237242    20B1     0.241915  
      12B2     0.246800    27A1     0.248080     8A2     0.248820  
      21B1     0.260536    28A1     0.266920    13B2     0.276418  
      22B1     0.335506    29A1     0.336001     9A2     0.357254  
      30A1     0.366197    10A2     0.386996    23B1     0.390725  
      31A1     0.392996    14B2     0.396036    24B1     0.489833  
      32A1     0.507381    25B1     0.522911    33A1     0.665622  
      15B2     0.667616    34A1     0.711074    26B1     0.726292  
      11A2     0.772873    16B2     0.773932    35A1     0.829124  
      27B1     0.830181    36A1     0.838616    17B2     0.847813  
      18B2     0.874791    12A2     0.891155    28B1     0.951857  
      37A1     0.960671    29B1     0.969628    38A1     0.982132  
      13A2     1.054838    39A1     1.059168    30B1     1.071606  
      19B2     1.097984    14A2     1.109419    40A1     1.245172  
      31B1     1.265436    32B1     1.302679    20B2     2.943769  
      33B1     2.996293    41A1     2.997691    15A2     3.045119  
      21B2     3.051145    42A1     3.055007    34B1     3.061527  
      43A1     3.078612    44A1     3.116590    35B1     3.198368  
      45A1     3.366726    22B2     3.377595    23B2     3.394127  
      16A2     3.402834    46A1     3.405290    36B1     3.407140  
      47A1     3.407537    24B2     3.410096    17A2     3.411217  
      37B1     3.412157    18A2     3.412878    38B1     3.416386  
      48A1     3.420970    19A2     3.424697    25B2     3.425619  
      39B1     3.429058    26B2     3.432411    49A1     3.442429  
      40B1     3.448527    50A1     3.458511    41B1     3.467654  
      51A1     3.514396    42B1     3.540741    20A2     3.621998  
      27B2     3.623188    52A1     3.625231    28B2     3.648748  
      43B1     3.680918    53A1     3.688503    21A2     3.705421  
      22A2     3.746791    29B2     3.755570    54A1     3.841316  
      44B1     3.847001    55A1     3.894226    45B1     3.943899  
      46B1     4.148119    56A1     4.154131    57A1    12.696047  
      30B2    12.696292    58A1    12.696322    47B1    12.696328  
      23A2    12.696592    48B1    12.696830    24A2    12.696862  
      31B2    12.696902    59A1    12.697483    49B1    12.697750  
      25A2    12.698388    32B2    12.698579    50B1    12.698721  
      60A1    12.699204    51B1    12.699864    61A1    12.699891  
      26A2    12.700034    33B2    12.700072    62A1    12.714138  
      52B1    12.714986    27A2    12.715629    34B2    12.715719  
      53B1    12.716959    63A1    12.717365    35B2    12.717424  
      64A1    12.717897    28A2    12.717908    36B2    12.855207  
      65A1    12.856526    37B2    12.857392    66A1    12.857481  
      29A2    12.858535    54B1    12.858668    30A2    12.859273  
      67A1    12.859412    38B2    12.863356    55B1    12.865244  
      31A2    12.871684    56B1    12.872771    39B2    12.875622  
      57B1    12.876983    68A1    12.877779    69A1    12.879851  
      32A2    12.880667    40B2    12.881772    70A1    12.926258  
      58B1    12.929110    59B1    12.965367  

    Final Occupation by Irrep:
             A1    A2    B1    B2 
    DOCC [    18,    5,   13,    7 ]
    SOCC [     1,    0,    0,    0 ]

  @DF-UKS Final Energy: -4922.36616143675019

   => Energetics <=

    Nuclear Repulsion Energy =            559.5148168447923354
    One-Electron Energy =               -7980.1194941900666890
    Two-Electron Energy =                2614.0521326121015591
    DFT Exchange-Correlation Energy =    -115.8135237235777311
    Empirical Dispersion Energy =          -0.0000929800000000
    VV10 Nonlocal Energy =                  0.0000000000000000
    Total Energy =                      -4922.3661614367501898

  UHF NO Occupations:
  HONO-2 :   13 B1 1.9985674
  HONO-1 :   18 A1 1.9930776
  HONO-0 :   19 A1 1.0000000
  LUNO+0 :   20 A1 0.0069224
  LUNO+1 :   14 B1 0.0014326
  LUNO+2 :   15 B1 0.0001982
  LUNO+3 :   21 A1 0.0001887


Computation Completed


Properties will be evaluated at   0.000000,   0.000000,   0.000000 [a0]

Properties computed using the SCF density matrix

  Nuclear Dipole Moment: [e a0]
     X:    -0.0000      Y:    -0.0000      Z:    -0.0000

  Electronic Dipole Moment: [e a0]
     X:     0.0000      Y:     0.0000      Z:    -0.3322

  Dipole Moment: [e a0]
     X:    -0.0000      Y:    -0.0000      Z:    -0.3322     Total:     0.3322

  Dipole Moment: [D]
     X:    -0.0000      Y:    -0.0000      Z:    -0.8443     Total:     0.8443


*** tstop() called on compute145.bc4.acrc.priv at Tue Nov  2 10:29:09 2021
Module time:
	user time   =     407.60 seconds =       6.79 minutes
	system time =      11.21 seconds =       0.19 minutes
	total time  =         16 seconds =       0.27 minutes
Total time:
	user time   =    1751.99 seconds =      29.20 minutes
	system time =      57.89 seconds =       0.96 minutes
	total time  =         99 seconds =       1.65 minutes

*** tstart() called on compute145.bc4.acrc.priv
*** at Tue Nov  2 10:29:09 2021


         ------------------------------------------------------------
                                   SCF GRAD                          
                          Rob Parrish, Justin Turney,                
                       Andy Simmonett, and Alex Sokolov              
         ------------------------------------------------------------

  ==> Geometry <==

    Molecular point group: c2v
    Full point group: C2v

    Geometry (in Angstrom), charge = 0, multiplicity = 2:

       Center              X                  Y                   Z               Mass       
    ------------   -----------------  -----------------  -----------------  -----------------
         CU           0.000000000000    -0.000000000000     1.432033892847    62.929597720000
         CU           1.147019932686     0.000000000000    -0.716016946424    62.929597720000
         CU          -1.147019932686    -0.000000000000    -0.716016946424    62.929597720000

  Nuclear repulsion =  559.514816844792335

  ==> Basis Set <==

  Basis Set: DEF2-TZVPPD
    Blend: DEF2-TZVPPD
    Number of shells: 57
    Number of basis functions: 201
    Number of Cartesian functions: 249
    Spherical Harmonics?: true
    Max angular momentum: 4

  ==> DFJKGrad: Density-Fitted SCF Gradients <==

    Gradient:                    1
    J tasked:                  Yes
    K tasked:                  Yes
    wK tasked:                  No
    OpenMP threads:             28
    Integrals threads:          28
    Memory [MiB]:            85830
    Schwarz Cutoff:          1E-12
    Fitting Condition:       1E-10

   => Auxiliary Basis Set <=

  Basis Set: (DEF2-TZVPPD AUX)
    Blend: DEF2-UNIVERSAL-JKFIT
    Number of shells: 174
    Number of basis functions: 792
    Number of Cartesian functions: 1131
    Spherical Harmonics?: true
    Max angular momentum: 6

  ==> DFT Potential <==

   => Composite Functional: MN15-D3BJ <= 

   MN15 Hybrid Meta-GGA Exchange-Correlation Functional

    H. S. Yu, X. He, S. L. Li, and D. G. Truhlar, Chem. Sci. 7, 5032-5051, 2016


    Deriv               =              1
    GGA                 =           TRUE
    Meta                =           TRUE

    Exchange Hybrid     =           TRUE
    MP2 Hybrid          =          FALSE

   => Exchange Functionals <=

    1.0000   XC_HYB_MGGA_X_MN15

   => Exact (HF) Exchange <=

    0.4400               HF 

   => Correlation Functionals <=

    1.0000   XC_MGGA_C_MN15

   => LibXC Density Thresholds  <==

    XC_MGGA_C_MN15:  1.00E-15 
    XC_HYB_MGGA_X_MN15:  1.00E-15 

   => Molecular Quadrature <=

    Radial Scheme          =       TREUTLER
    Pruning Scheme         =           NONE
    Nuclear Scheme         =       TREUTLER

    BS radius alpha        =              1
    Pruning alpha          =              1
    Radial Points          =             75
    Spherical Points       =            302
    Total Points           =          65361
    Total Blocks           =            591
    Max Points             =            256
    Max Functions          =            191
    Weights Tolerance      =       1.00E-15


  -Total Gradient:
     Atom            X                  Y                   Z
    ------   -----------------  -----------------  -----------------
       1        0.000000000000     0.000000000000    -0.002595056807
       2       -0.000194900513    -0.000000000000     0.001352245030
       3        0.000194900513     0.000000000000     0.001352245030


*** tstop() called on compute145.bc4.acrc.priv at Tue Nov  2 10:29:27 2021
Module time:
	user time   =     125.56 seconds =       2.09 minutes
	system time =       3.82 seconds =       0.06 minutes
	total time  =         18 seconds =       0.30 minutes
Total time:
	user time   =    1881.05 seconds =      31.35 minutes
	system time =      61.86 seconds =       1.03 minutes
	total time  =        117 seconds =       1.95 minutes

			-----------------------------------------
			 OPTKING 2.0: for geometry optimizations 
			  - R.A. King,  Bethel University        
			-----------------------------------------
	At level 1: Red. Int., RFO, no backsteps, dynamic trust

	Previous internal coordinate definitions found.
	---Fragment 1 Geometry and Gradient---
[...]
      42App    3.412974    85Ap     3.414548    86Ap     3.416248  
      43App    3.420276    44App    3.420553    87Ap     3.423849  
      45App    3.427384    88Ap     3.434769    89Ap     3.438703  
      90Ap     3.451159    91Ap     3.464766    92Ap     3.504050  
      93Ap     3.539516    46App    3.616242    47App    3.617478  
      94Ap     3.619193    48App    3.646014    95Ap     3.674748  
      96Ap     3.679987    49App    3.698176    50App    3.745118  
      51App    3.747597    97Ap     3.825934    98Ap     3.832687  
      99Ap     3.890277   100Ap     3.932144   101Ap     4.139984  
     102Ap     4.140342   103Ap    12.696436   104Ap    12.696687  
     105Ap    12.696858    52App   12.696877    53App   12.697099  
     106Ap    12.697193    54App   12.697377    55App   12.697427  
     107Ap    12.698041   108Ap    12.698452    56App   12.698779  
      57App   12.698926   109Ap    12.699024   110Ap    12.699353  
     111Ap    12.700409   112Ap    12.700460    58App   12.700595  
      59App   12.700658   113Ap    12.715054   114Ap    12.715930  
      60App   12.716696    61App   12.717054   115Ap    12.718186  
      62App   12.718468   116Ap    12.718488   117Ap    12.719511  
      63App   12.719611    64App   12.855416   118Ap    12.856335  
     119Ap    12.857497    65App   12.857542    66App   12.858599  
     120Ap    12.858910    67App   12.859067   121Ap    12.859222  
      68App   12.862645   122Ap    12.865245    69App   12.872264  
     123Ap    12.872942    70App   12.875958   124Ap    12.877225  
     125Ap    12.877409   126Ap    12.878863    71App   12.880270  
      72App   12.880937   127Ap    12.920394   128Ap    12.923469  
     129Ap    12.966957  

    Beta Occupied:                                                        

       1Ap  -320.706675     2Ap  -320.706618     3Ap  -320.688059  
       4Ap   -37.877239     5Ap   -37.877076     6Ap   -37.860591  
       7Ap   -33.728977     8Ap   -33.728929     9Ap   -33.726941  
      10Ap   -33.726891     1App  -33.725865     2App  -33.725813  
      11Ap   -33.712508    12Ap   -33.710439     3App  -33.708441  
      13Ap    -4.097191    14Ap    -4.096586    15Ap    -4.078391  
      16Ap    -2.771145    17Ap    -2.766458    18Ap    -2.766175  
       4App   -2.766033    19Ap    -2.765729     5App   -2.765639  
      20Ap    -2.749149    21Ap    -2.748866     6App   -2.746461  
      22Ap    -0.370007    23Ap    -0.360104     7App   -0.355920  
      24Ap    -0.343669     8App   -0.342278    25Ap    -0.341719  
       9App   -0.334317    26Ap    -0.323614    10App   -0.320843  
      27Ap    -0.319183    28Ap    -0.313032    11App   -0.311747  
      29Ap    -0.308053    12App   -0.308004    30Ap    -0.297123  
      31Ap    -0.274814  

    Beta Virtual:                                                         

      32Ap    -0.074853    33Ap    -0.058622    13App   -0.025366  
      34Ap     0.026402    35Ap     0.046476    36Ap     0.047568  
      14App    0.071193    37Ap     0.078485    15App    0.081994  
      38Ap     0.089108    39Ap     0.129838    40Ap     0.137551  
      16App    0.146178    41Ap     0.148358    42Ap     0.165272  
      43Ap     0.166678    17App    0.188828    18App    0.193581  
      44Ap     0.224407    45Ap     0.237178    46Ap     0.241319  
      19App    0.246500    47Ap     0.247757    20App    0.248303  
      48Ap     0.260398    49Ap     0.265349    21App    0.275721  
      50Ap     0.334926    51Ap     0.335205    22App    0.356765  
      52Ap     0.366499    23App    0.386888    53Ap     0.390464  
      54Ap     0.392316    24App    0.394991    55Ap     0.488039  
      56Ap     0.503649    57Ap     0.523765    58Ap     0.665659  
      25App    0.669987    59Ap     0.709310    60Ap     0.727581  
      26App    0.772790    27App    0.773134    61Ap     0.829885  
      62Ap     0.830275    63Ap     0.838290    28App    0.847289  
      29App    0.874553    30App    0.893519    64Ap     0.948742  
      65Ap     0.959990    66Ap     0.966359    67Ap     0.981397  
      31App    1.052952    68Ap     1.055475    69Ap     1.071691  
      32App    1.094300    33App    1.109654    70Ap     1.238257  
      71Ap     1.260856    72Ap     1.303889    34App    2.944405  
      73Ap     2.989112    74Ap     2.991655    35App    3.045479  
      36App    3.050033    75Ap     3.054402    76Ap     3.062382  
      77Ap     3.077344    78Ap     3.127622    79Ap     3.202775  
      80Ap     3.368140    37App    3.377577    38App    3.394634  
      39App    3.404324    81Ap     3.404641    82Ap     3.406781  
      83Ap     3.407291    40App    3.410398    41App    3.411614  
      84Ap     3.412549    42App    3.413389    85Ap     3.417065  
      86Ap     3.422350    43App    3.425950    44App    3.426814  
      87Ap     3.429455    45App    3.433146    88Ap     3.439194  
      89Ap     3.446073    90Ap     3.458303    91Ap     3.465468  
      92Ap     3.508476    93Ap     3.541475    46App    3.620104  
      47App    3.620635    94Ap     3.623690    48App    3.647729  
      95Ap     3.680410    96Ap     3.687853    49App    3.704643  
      50App    3.746285    51App    3.754022    97Ap     3.827887  
      98Ap     3.837282    99Ap     3.894936   100Ap     3.940560  
     101Ap     4.140667   102Ap     4.142886   103Ap    12.696339  
      52App   12.696553   104Ap    12.696585   105Ap    12.696644  
      53App   12.696883   106Ap    12.697124    54App   12.697142  
      55App   12.697211   107Ap    12.697698   108Ap    12.698018  
      56App   12.698667    57App   12.698849   109Ap    12.699007  
     110Ap    12.699456   111Ap    12.700149   112Ap    12.700217  
      58App   12.700320    59App   12.700391   113Ap    12.715030  
     114Ap    12.715809    60App   12.716403    61App   12.716583  
     115Ap    12.717713   116Ap    12.718133    62App   12.718163  
     117Ap    12.718603    63App   12.718625    64App   12.855398  
     118Ap    12.856632   119Ap    12.857533    65App   12.857657  
      66App   12.858841   120Ap    12.859004   121Ap    12.859540  
      67App   12.859603    68App   12.863307   122Ap    12.866005  
      69App   12.872440   123Ap    12.873301    70App   12.876447  
     124Ap    12.877600   125Ap    12.878201   126Ap    12.880098  
      71App   12.880989    72App   12.881988   127Ap    12.921215  
     128Ap    12.924672   129Ap    12.967212  

    Final Occupation by Irrep:
             Ap   App 
    DOCC [    31,   12 ]
    SOCC [     1,    0 ]

  @DF-UKS Final Energy: -4922.36622619456830

   => Energetics <=

    Nuclear Repulsion Energy =            556.6035892346368428
    One-Electron Energy =               -7974.3422206020804879
    Two-Electron Energy =                2611.1847395707272881
    DFT Exchange-Correlation Energy =    -115.8122414178524053
    Empirical Dispersion Energy =          -0.0000929800000000
    VV10 Nonlocal Energy =                  0.0000000000000000
    Total Energy =                      -4922.3662261945682985

  UHF NO Occupations:
  HONO-2 :   30 Ap 1.9985947
  HONO-1 :   31 Ap 1.9929934
  HONO-0 :   32 Ap 1.0000000
  LUNO+0 :   33 Ap 0.0070066
  LUNO+1 :   34 Ap 0.0014053
  LUNO+2 :   35 Ap 0.0001940
  LUNO+3 :   36 Ap 0.0001866


Computation Completed


Properties will be evaluated at   0.000000,   0.000000,   0.000000 [a0]

Properties computed using the SCF density matrix

  Nuclear Dipole Moment: [e a0]
     X:    -0.0000      Y:     0.0000      Z:     0.0000

  Electronic Dipole Moment: [e a0]
     X:    -0.0008      Y:     0.0000      Z:    -0.3368

  Dipole Moment: [e a0]
     X:    -0.0008      Y:     0.0000      Z:    -0.3368     Total:     0.3368

  Dipole Moment: [D]
     X:    -0.0020      Y:     0.0000      Z:    -0.8560     Total:     0.8560


*** tstop() called on compute145.bc4.acrc.priv at Tue Nov  2 10:35:58 2021
Module time:
	user time   =     811.34 seconds =      13.52 minutes
	system time =      20.15 seconds =       0.34 minutes
	total time  =         30 seconds =       0.50 minutes
Total time:
	user time   =    8962.92 seconds =     149.38 minutes
	system time =     247.72 seconds =       4.13 minutes
	total time  =        508 seconds =       8.47 minutes

*** tstart() called on compute145.bc4.acrc.priv
*** at Tue Nov  2 10:35:58 2021


         ------------------------------------------------------------
                                   SCF GRAD                          
                          Rob Parrish, Justin Turney,                
                       Andy Simmonett, and Alex Sokolov              
         ------------------------------------------------------------

  ==> Geometry <==

    Molecular point group: cs
    Full point group: Cs

    Geometry (in Angstrom), charge = 0, multiplicity = 2:

       Center              X                  Y                   Z               Mass       
    ------------   -----------------  -----------------  -----------------  -----------------
         CU          -0.000183520440     0.000000000000     1.449402525590    62.929597720000
         CU           1.144967571032     0.000000000000    -0.724875514221    62.929597720000
         CU          -1.144784050592     0.000000000000    -0.724527011370    62.929597720000

  Nuclear repulsion =  556.603589234636843

  ==> Basis Set <==

  Basis Set: DEF2-TZVPPD
    Blend: DEF2-TZVPPD
    Number of shells: 57
    Number of basis functions: 201
    Number of Cartesian functions: 249
    Spherical Harmonics?: true
    Max angular momentum: 4

  ==> DFJKGrad: Density-Fitted SCF Gradients <==

    Gradient:                    1
    J tasked:                  Yes
    K tasked:                  Yes
    wK tasked:                  No
    OpenMP threads:             28
    Integrals threads:          28
    Memory [MiB]:            85830
    Schwarz Cutoff:          1E-12
    Fitting Condition:       1E-10

   => Auxiliary Basis Set <=

  Basis Set: (DEF2-TZVPPD AUX)
    Blend: DEF2-UNIVERSAL-JKFIT
    Number of shells: 174
    Number of basis functions: 792
    Number of Cartesian functions: 1131
    Spherical Harmonics?: true
    Max angular momentum: 6

  ==> DFT Potential <==

   => Composite Functional: MN15-D3BJ <= 

   MN15 Hybrid Meta-GGA Exchange-Correlation Functional

    H. S. Yu, X. He, S. L. Li, and D. G. Truhlar, Chem. Sci. 7, 5032-5051, 2016


    Deriv               =              1
    GGA                 =           TRUE
    Meta                =           TRUE

    Exchange Hybrid     =           TRUE
    MP2 Hybrid          =          FALSE

   => Exchange Functionals <=

    1.0000   XC_HYB_MGGA_X_MN15

   => Exact (HF) Exchange <=

    0.4400               HF 

   => Correlation Functionals <=

    1.0000   XC_MGGA_C_MN15

   => LibXC Density Thresholds  <==

    XC_MGGA_C_MN15:  1.00E-15 
    XC_HYB_MGGA_X_MN15:  1.00E-15 

   => Molecular Quadrature <=

    Radial Scheme          =       TREUTLER
    Pruning Scheme         =           NONE
    Nuclear Scheme         =       TREUTLER

    BS radius alpha        =              1
    Pruning alpha          =              1
    Radial Points          =             75
    Spherical Points       =            302
    Total Points           =          65364
    Total Blocks           =            598
    Max Points             =            256
    Max Functions          =            191
    Weights Tolerance      =       1.00E-15


  -Total Gradient:
     Atom            X                  Y                   Z
    ------   -----------------  -----------------  -----------------
       1        0.000012876242     0.000000000000    -0.000000393988
       2       -0.000137467263     0.000000000000     0.000062996534
       3        0.000126462021     0.000000000000     0.000045655391


*** tstop() called on compute145.bc4.acrc.priv at Tue Nov  2 10:36:16 2021
Module time:
	user time   =     120.60 seconds =       2.01 minutes
	system time =       3.51 seconds =       0.06 minutes
	total time  =         18 seconds =       0.30 minutes
Total time:
	user time   =    9087.34 seconds =     151.46 minutes
	system time =     251.41 seconds =       4.19 minutes
	total time  =        526 seconds =       8.77 minutes

         ----------------------------------------------------------
                                   FINDIF
                     R. A. King and Jonathon Misiewicz
         ---------------------------------------------------------

  Computing second-derivative from gradients using projected, 
  symmetry-adapted, cartesian coordinates.

  6 gradients passed in, including the reference geometry.
  Generating complete list of displacements from unique ones.

    Operation 2 takes plus displacements of irrep B1 to minus ones.

-------------------------------------------------------------


  ==> Harmonic Vibrational Analysis <==

  non-mass-weighted Hessian:       Symmetric? True   Hermitian? True   Lin Dep Dim?  6 (0)
  projection of translations (True) and rotations (True) removed 6 degrees of freedom (6)
  total projector:                 Symmetric? True   Hermitian? True   Lin Dep Dim?  6 (6)
  mass-weighted Hessian:           Symmetric? True   Hermitian? True   Lin Dep Dim?  6 (0)
  pre-proj  low-frequency mode:    0.0000i [cm^-1]
  pre-proj  low-frequency mode:    0.0000i [cm^-1]
  pre-proj  low-frequency mode:    0.0000i [cm^-1]
  pre-proj  low-frequency mode:    0.0000  [cm^-1]
  pre-proj  low-frequency mode:    0.0000  [cm^-1]
  pre-proj  low-frequency mode:    0.0000  [cm^-1]
  pre-proj  low-frequency mode:    0.0000  [cm^-1]
  pre-proj  all modes:['113.0163i' '0.0000i' '0.0000i' '0.0000' '0.0000' '0.0000' '0.0000'
 '174.0984' '256.0573']
  projected mass-weighted Hessian: Symmetric? True   Hermitian? True   Lin Dep Dim?  6 (6)
  post-proj low-frequency mode:  113.0163i [cm^-1] (V)
  post-proj low-frequency mode:    0.0000i [cm^-1] (TR)
  post-proj low-frequency mode:    0.0000i [cm^-1] (TR)
  post-proj low-frequency mode:    0.0000  [cm^-1] (TR)
  post-proj low-frequency mode:    0.0000  [cm^-1] (TR)
  post-proj low-frequency mode:    0.0000  [cm^-1] (TR)
  post-proj low-frequency mode:    0.0000  [cm^-1] (TR)
  post-proj  all modes:['113.0163i' '0.0000i' '0.0000i' '0.0000' '0.0000' '0.0000' '0.0000'
 '174.0984' '256.0573']

  Vibration                       1                   8                   9           
  Freq [cm^-1]                113.0163i            174.0984            256.0573       
  Irrep                           B1                  A1                  A1          
  Reduced mass [u]             62.9296             62.9296             62.9296        
  Force const [mDyne/A]        -0.4736              1.1238              2.4310        
  Turning point v=0 [a0]        0.0000              0.1048              0.0864        
  RMS dev v=0 [a0 u^1/2]        0.0000              0.5880              0.4849        
  Char temp [K]                 0.0000             250.4888            368.4094       
  ----------------------------------------------------------------------------------
      1   CU               0.55 -0.00 -0.00    0.00  0.00  0.79    0.00  0.00  0.22   
      2   CU              -0.28 -0.00  0.52   -0.19 -0.00 -0.39    0.68  0.00 -0.11   
      3   CU              -0.28 -0.00 -0.52    0.19  0.00 -0.39   -0.68  0.00 -0.11   

  ==> Thermochemistry Components <==

  Entropy, S
    Electronic S            1.377 [cal/(mol K)]        5.763 [J/(mol K)]       0.00219507 [mEh/K] (multiplicity = 2)
    Translational S        41.612 [cal/(mol K)]      174.105 [J/(mol K)]       0.06631321 [mEh/K] (mol. weight = 188.7888 [u], P = 101325.00 [Pa])
    Rotational S           26.406 [cal/(mol K)]      110.483 [J/(mol K)]       0.04208077 [mEh/K] (symmetry no. = 2)
    Vibrational S           4.079 [cal/(mol K)]       17.068 [J/(mol K)]       0.00650073 [mEh/K]
  Total S                  73.475 [cal/(mol K)]      307.419 [J/(mol K)]       0.11708978 [mEh/K]
  Correction S              0.000 [cal/(mol K)]        0.000 [J/(mol K)]       0.00000000 [mEh/K]

  Constant volume heat capacity, Cv
    Electronic Cv           0.000 [cal/(mol K)]        0.000 [J/(mol K)]       0.00000000 [mEh/K]
    Translational Cv        2.981 [cal/(mol K)]       12.472 [J/(mol K)]       0.00475022 [mEh/K]
    Rotational Cv           2.981 [cal/(mol K)]       12.472 [J/(mol K)]       0.00475022 [mEh/K]
    Vibrational Cv          3.627 [cal/(mol K)]       15.175 [J/(mol K)]       0.00577980 [mEh/K]
  Total Cv                  9.588 [cal/(mol K)]       40.118 [J/(mol K)]       0.01528023 [mEh/K]
  Correction Cv             0.000 [cal/(mol K)]        0.000 [J/(mol K)]       0.00000000 [mEh/K]

  Constant pressure heat capacity, Cp
    Electronic Cp           0.000 [cal/(mol K)]        0.000 [J/(mol K)]       0.00000000 [mEh/K]
    Translational Cp        4.968 [cal/(mol K)]       20.786 [J/(mol K)]       0.00791703 [mEh/K]
    Rotational Cp           2.981 [cal/(mol K)]       12.472 [J/(mol K)]       0.00475022 [mEh/K]
    Vibrational Cp          3.627 [cal/(mol K)]       15.175 [J/(mol K)]       0.00577980 [mEh/K]
  Total Cp                 11.576 [cal/(mol K)]       48.433 [J/(mol K)]       0.01844704 [mEh/K]
  Correction Cp             0.000 [cal/(mol K)]        0.000 [J/(mol K)]       0.00000000 [mEh/K]

  ==> Thermochemistry Energy Analysis <==

  Raw electronic energy, E0
  Total E0, Electronic energy at well bottom at 0 [K]                -4922.36622619 [Eh]

  Zero-point energy, ZPE_vib = Sum_i nu_i / 2
    Electronic ZPE          0.000 [kcal/mol]        0.000 [kJ/mol]       0.00000000 [Eh]
    Translational ZPE       0.000 [kcal/mol]        0.000 [kJ/mol]       0.00000000 [Eh]
    Rotational ZPE          0.000 [kcal/mol]        0.000 [kJ/mol]       0.00000000 [Eh]
    Vibrational ZPE         0.615 [kcal/mol]        2.573 [kJ/mol]       0.00097997 [Eh]         215.078 [cm^-1]
  Correction ZPE            0.615 [kcal/mol]        2.573 [kJ/mol]       0.00097997 [Eh]         215.078 [cm^-1]
  Total ZPE, Electronic energy at 0 [K]                              -4922.36524622 [Eh]

  Thermal Energy, E (includes ZPE)
    Electronic E            0.000 [kcal/mol]        0.000 [kJ/mol]       0.00000000 [Eh]
    Translational E         0.889 [kcal/mol]        3.718 [kJ/mol]       0.00141628 [Eh]
    Rotational E            0.889 [kcal/mol]        3.718 [kJ/mol]       0.00141628 [Eh]
    Vibrational E           1.293 [kcal/mol]        5.410 [kJ/mol]       0.00206045 [Eh]
  Correction E              3.070 [kcal/mol]       12.847 [kJ/mol]       0.00489300 [Eh]
  Total E, Electronic energy at  298.15 [K]                          -4922.36133319 [Eh]

  Enthalpy, H_trans = E_trans + k_B * T
    Electronic H            0.000 [kcal/mol]        0.000 [kJ/mol]       0.00000000 [Eh]
    Translational H         1.481 [kcal/mol]        6.197 [kJ/mol]       0.00236046 [Eh]
    Rotational H            0.889 [kcal/mol]        3.718 [kJ/mol]       0.00141628 [Eh]
    Vibrational H           1.293 [kcal/mol]        5.410 [kJ/mol]       0.00206045 [Eh]
  Correction H              3.663 [kcal/mol]       15.326 [kJ/mol]       0.00583719 [Eh]
  Total H, Enthalpy at  298.15 [K]                                   -4922.36038900 [Eh]

  Gibbs free energy, G = H - T * S
    Electronic G           -0.411 [kcal/mol]       -1.718 [kJ/mol]      -0.00065446 [Eh]
    Translational G       -10.925 [kcal/mol]      -45.712 [kJ/mol]      -0.01741082 [Eh]
    Rotational G           -6.984 [kcal/mol]      -29.222 [kJ/mol]      -0.01113010 [Eh]
    Vibrational G           0.077 [kcal/mol]        0.321 [kJ/mol]       0.00012226 [Eh]
  Correction G            -18.244 [kcal/mol]      -76.331 [kJ/mol]      -0.02907313 [Eh]
  Total G, Free enthalpy at  298.15 [K]                              -4922.39529932 [Eh]

    Psi4 stopped on: Tuesday, 02 November 2021 10:36AM
    Psi4 wall time for execution: 0:08:46.82

*** Psi4 exiting successfully. Buy a developer a beer!
