Optimizer: Optimization complete!
 3 displacements needed.
 1 2 3
At level 1: Red. Int., RFO, no backsteps, dynamic trust
At level 1: Red. Int., RFO, no backsteps, dynamic trust
At level 1: Red. Int., RFO, no backsteps, dynamic trust
At level 1: Red. Int., RFO, no backsteps, dynamic trust
immonett, R. M. Parrish,
    M. C. Schieber, R. Galvelis, P. Kraus, H. Kruse, R. Di Remigio,
    A. Alenaizan, A. M. James, S. Lehtola, J. P. Misiewicz, M. Scheurer,
    R. A. Shaw, J. B. Schriber, Y. Xie, Z. L. Glick, D. A. Sirianni,
    J. S. O'Brien, J. M. Waldrop, A. Kumar, E. G. Hohenstein,
    B. P. Pritchard, B. R. Brooks, H. F. Schaefer III, A. Yu. Sokolov,
    K. Patkowski, A. E. DePrince III, U. Bozkaya, R. A. King,
    F. A. Evangelista, J. M. Turney, T. D. Crawford, C. D. Sherrill,
    J. Chem. Phys. 152(18) 184108 (2020). https://doi.org/10.1063/5.0006002

                            Additional Code Authors
    E. T. Seidl, C. L. Janssen, E. F. Valeev, M. L. Leininger,
    J. F. Gonthier, R. M. Richard, H. R. McAlexander, M. Saitow, X. Wang,
    P. Verma, and M. H. Lechner

             Previous Authors, Complete List of Code Contributors,
                       and Citations for Specific Modules
    https://github.com/psi4/psi4/blob/master/codemeta.json
    https://github.com/psi4/psi4/graphs/contributors
    http://psicode.org/psi4manual/master/introduction.html#citing-psifour

    -----------------------------------------------------------------------


    Psi4 started on: Tuesday, 02 November 2021 04:19PM

    Process ID: 27912
    Host:       compute236.bc4.acrc.priv
    PSIDATADIR: /mnt/storage/home/zw18965/.conda/envs/p4env/share/psi4
    Memory:     500.0 MiB
    Threads:    28
    
  ==> Input File <==

--------------------------------------------------------------------------
memory 144 GB

molecule {
0 1
Ag       0.000000    0.000000    0.033547 
H        0.000000    0.000000   -1.576706 
 }

set dynamic_level 1
set basis Def2-TZVPPD

optimize("SCAN-D3BJ")
frequencies("SCAN-D3BJ")
--------------------------------------------------------------------------

  Memory set to 134.110 GiB by Python driver.

Scratch directory: /tmp/
gradient() will perform analytic gradient computation.

*** tstart() called on compute236.bc4.acrc.priv
*** at Tue Nov  2 16:19:15 2021

   => Loading Basis Set <=

    Name: DEF2-TZVPPD
    Role: ORBITAL
    Keyword: BASIS
    atoms 1 entry AG         line  2174 (ECP: line  3646) file /mnt/storage/home/zw18965/.conda/envs/p4env/share/psi4/basis/def2-tzvppd.gbs 
    atoms 2 entry H          line    14 file /mnt/storage/home/zw18965/.conda/envs/p4env/share/psi4/basis/def2-tzvppd.gbs 

    !!!  WARNING: ECP capability is in beta. Please check occupations closely.  !!!

   => SCAN-D3(BJ): Empirical Dispersion <=

    Grimme's -D3 (BJ-damping) Dispersion Correction
    Grimme S.; Ehrlich S.; Goerigk L. (2011), J. Comput. Chem., 32: 1456
    Parametrisation from:    J.G. Brandenburg, J. E. Bates, J. Sun, J.P. Perdew, Phys. Rev. B 94, 115144, 2016

        s6 =       1.000000
        s8 =       0.000000
        a1 =       0.538000
        a2 =       5.420000


         ---------------------------------------------------------
                                   SCF
               by Justin Turney, Rob Parrish, Andy Simmonett
                          and Daniel G. A. Smith
                              RKS Reference
                       28 Threads, 137329 MiB Core
         ---------------------------------------------------------

  ==> Geometry <==

    Molecular point group: c2v
    Full point group: C_inf_v

    Geometry (in Angstrom), charge = 0, multiplicity = 1:

       Center              X                  Y                   Z               Mass       
    ------------   -----------------  -----------------  -----------------  -----------------
         AG           0.000000000000     0.000000000000     0.015038545267   106.905091600000
         H            0.000000000000     0.000000000000    -1.595214454733     1.007825032230

  Running in c2v symmetry.

  Rotational constants: A = ************  B =      6.51176  C =      6.51176 [cm^-1]
  Rotational constants: A = ************  B = 195217.55314  C = 195217.55314 [MHz]
  Nuclear repulsion =    6.243967254046415

  Charge       = 0
  Multiplicity = 1
  Electrons    = 20
  Nalpha       = 10
  Nbeta        = 10

  ==> Algorithm <==

  SCF Algorithm Type is DF.
  DIIS enabled.
  MOM disabled.
  Fractional occupation disabled.
  Guess Type is SAD.
  Energy threshold   = 1.00e-08
  Density threshold  = 1.00e-08
  Integral threshold = 1.00e-12

  ==> Primary Basis <==

  Basis Set: DEF2-TZVPPD
    Blend: DEF2-TZVPPD
    Number of shells: 23
    Number of basis functions: 73
    Number of Cartesian functions: 89
    Spherical Harmonics?: true
    Max angular momentum: 4

  Core potential: DEF2-TZVPPD
    Number of shells: 4
    Number of ECP primitives: 14
    Number of ECP core electrons: 28
    Max angular momentum: 3

  ==> DFT Potential <==

   => Composite Functional: SCAN-D3BJ <= 

    SCAN Meta-GGA XC Functional
(10.1103/PhysRevLett.115.036402)
    J. Sun, A. Ruzsinszky, J. P. Perdew  Phys. Rev. Lett. 115, 036402, 2015


    Deriv               =              1
    GGA                 =           TRUE
    Meta                =           TRUE

    Exchange Hybrid     =          FALSE
    MP2 Hybrid          =          FALSE

   => Exchange Functionals <=

    1.0000   XC_MGGA_X_SCAN

   => Correlation Functionals <=

    1.0000   XC_MGGA_C_SCAN

   => LibXC Density Thresholds  <==

    XC_MGGA_C_SCAN:  1.00E-15 
    XC_MGGA_X_SCAN:  1.00E-15 

   => Molecular Quadrature <=

    Radial Scheme          =       TREUTLER
    Pruning Scheme         =           NONE
    Nuclear Scheme         =       TREUTLER

    BS radius alpha        =              1
    Pruning alpha          =              1
    Radial Points          =             75
    Spherical Points       =            302
    Total Points           =          43133
    Total Blocks           =            397
    Max Points             =            254
    Max Functions          =             73
    Weights Tolerance      =       1.00E-15

   => Loading Basis Set <=

    Name: (DEF2-TZVPPD AUX)
    Role: JKFIT
    Keyword: DF_BASIS_SCF
    atoms 1 entry AG         line  4364 file /mnt/storage/home/zw18965/.conda/envs/p4env/share/psi4/basis/def2-universal-jkfit.gbs 
    atoms 2 entry H          line    18 file /mnt/storage/home/zw18965/.conda/envs/p4env/share/psi4/basis/def2-universal-jkfit.gbs 

  ==> Integral Setup <==

  DFHelper Memory: AOs need 0.014 GiB; user supplied 100.378 GiB. Using in-core AOs.

  ==> MemDFJK: Density-Fitted J/K Matrices <==

    J tasked:                   Yes
    K tasked:                    No
    wK tasked:                   No
    OpenMP threads:              28
    Memory [MiB]:            102787
    Algorithm:                 Core
    Schwarz Cutoff:           1E-12
    Mask sparsity (%):       0.0000
    Fitting Condition:        1E-10

   => Auxiliary Basis Set <=

  Basis Set: (DEF2-TZVPPD AUX)
    Blend: DEF2-UNIVERSAL-JKFIT
    Number of shells: 55
    Number of basis functions: 273
    Number of Cartesian functions: 404
    Spherical Harmonics?: true
    Max angular momentum: 6

  Cached 100.0% of DFT collocation blocks in 0.205 [GiB].

  Minimum eigenvalue in the overlap matrix is 3.3162039647E-03.
  Reciprocal condition number of the overlap matrix is 7.9297262988E-04.
    Using symmetric orthogonalization.

  ==> Pre-Iterations <==

  SCF Guess: Superposition of Atomic Densities via on-the-fly atomic UHF (no occupation information).

   -------------------------
    Irrep   Nso     Nmo    
   -------------------------
     A1        31      31 
     A2         8       8 
     B1        17      17 
     B2        17      17 
   -------------------------
    Total      73      73
   -------------------------

  ==> Iterations <==

                           Total Energy        Delta E     RMS |[F,P]|

   @DF-RKS iter SAD:  -147.30709617070289   -1.47307e+02   0.00000e+00 
   @DF-RKS iter   1:  -147.53398147120168   -2.26885e-01   7.41463e-03 DIIS
   @DF-RKS iter   2:  -147.33950487653706    1.94477e-01   1.61487e-02 DIIS
   @DF-RKS iter   3:  -147.58780893986216   -2.48304e-01   1.07483e-03 DIIS
   @DF-RKS iter   4:  -147.58786889749877   -5.99576e-05   9.46216e-04 DIIS
   @DF-RKS iter   5:  -147.58841723417137   -5.48337e-04   2.94758e-04 DIIS
   @DF-RKS iter   6:  -147.58850269139640   -8.54572e-05   4.72651e-05 DIIS
   @DF-RKS iter   7:  -147.58850400003769   -1.30864e-06   3.94211e-06 DIIS
   @DF-RKS iter   8:  -147.58850400831926   -8.28157e-09   1.36703e-06 DIIS
   @DF-RKS iter   9:  -147.58850401009801   -1.77874e-09   1.14666e-07 DIIS
   @DF-RKS iter  10:  -147.58850401010969   -1.16813e-11   8.47552e-09 DIIS
  Energy and wave function converged.


  ==> Post-Iterations <==

   Electrons on quadrature grid:
      Ntotal   =   19.9999990889 ; deviation = -9.111e-07 

    Orbital Energies [Eh]
    ---------------------

    Doubly Occupied:                                                      

       1A1    -3.707004     2A1    -2.301461     1B1    -2.290095  
       1B2    -2.290095     3A1    -0.355333     2B1    -0.298246  
       2B2    -0.298246     4A1    -0.287845     1A2    -0.287844  
       5A1    -0.225079  

    Virtual:                                                              

       6A1    -0.097800     3B1    -0.009080     3B2    -0.009080  
       7A1     0.095187     8A1     0.104698     4B1     0.179043  
       4B2     0.179043     9A1     0.187657     5B1     0.234632  
       5B2     0.234632    10A1     0.406711    11A1     0.410921  
       2A2     0.410925    12A1     0.479790     6B1     0.532058  
       6B2     0.532058    13A1     0.595983     7B1     0.875604  
       7B2     0.875604    14A1     1.093002     3A2     1.565117  
      15A1     1.565132     8B2     1.578003     8B1     1.578003  
       9B1     1.597415     9B2     1.597415    10B1     1.650997  
      10B2     1.650997    16A1     1.662015    17A1     1.852598  
       4A2     2.028658    18A1     2.028662    19A1     2.045531  
      11B1     2.094451    11B2     2.094451    20A1     2.233522  
      21A1     2.694786    22A1     3.314077     5A2     3.314199  
      12B1     3.524216    12B2     3.524216    13B1     3.964098  
      13B2     3.964098    23A1     3.986755    24A1     4.640435  
      14B1     4.861773    14B2     4.861773    25A1     4.874471  
       6A2     4.874497    15B1     5.057824    15B2     5.057824  
      26A1     5.264488    16B1     5.620259    16B2     5.620259  
      27A1     5.621882     7A2     5.621895     8A2     5.626122  
      28A1     5.626122    17B1     5.762750    17B2     5.762750  
      29A1     6.247995    30A1    33.648400    31A1   110.906941  

    Final Occupation by Irrep:
             A1    A2    B1    B2 
    DOCC [     5,    1,    2,    2 ]

  @DF-RKS Final Energy:  -147.58850401010969

   => Energetics <=

    Nuclear Repulsion Energy =              6.2439672540464146
    One-Electron Energy =                -273.9268320057202573
    Two-Electron Energy =                 134.5787048045735901
    DFT Exchange-Correlation Energy =     -14.4842687430094390
    Empirical Dispersion Energy =          -0.0000753200000000
    VV10 Nonlocal Energy =                  0.0000000000000000
    Total Energy =                       -147.5885040101096877

Computation Completed


Properties will be evaluated at   0.000000,   0.000000,   0.000000 [a0]

Properties computed using the SCF density matrix

  Nuclear Dipole Moment: [e a0]
     X:     0.0000      Y:     0.0000      Z:    -2.4746

  Electronic Dipole Moment: [e a0]
     X:     0.0000      Y:     0.0000      Z:     3.4786

  Dipole Moment: [e a0]
     X:     0.0000      Y:     0.0000      Z:     1.0040     Total:     1.0040

  Dipole Moment: [D]
     X:     0.0000      Y:     0.0000      Z:     2.5519     Total:     2.5519


*** tstop() called on compute236.bc4.acrc.priv at Tue Nov  2 16:19:22 2021
Module time:
	user time   =      47.01 seconds =       0.78 minutes
	system time =       2.11 seconds =       0.04 minutes
	total time  =          7 seconds =       0.12 minutes
Total time:
	user time   =      47.01 seconds =       0.78 minutes
	system time =       2.11 seconds =       0.04 minutes
	total time  =          7 seconds =       0.12 minutes

*** tstart() called on compute236.bc4.acrc.priv
*** at Tue Nov  2 16:19:22 2021


         ------------------------------------------------------------
                                   SCF GRAD                          
                          Rob Parrish, Justin Turney,                
                       Andy Simmonett, and Alex Sokolov              
         ------------------------------------------------------------

  ==> Geometry <==

    Molecular point group: c2v
    Full point group: C_inf_v

    Geometry (in Angstrom), charge = 0, multiplicity = 1:

       Center              X                  Y                   Z               Mass       
    ------------   -----------------  -----------------  -----------------  -----------------
         AG           0.000000000000     0.000000000000     0.015038545267   106.905091600000
         H            0.000000000000     0.000000000000    -1.595214454733     1.007825032230

  Nuclear repulsion =    6.243967254046415

  ==> Basis Set <==

  Basis Set: DEF2-TZVPPD
    Blend: DEF2-TZVPPD
    Number of shells: 23
    Number of basis functions: 73
    Number of Cartesian functions: 89
    Spherical Harmonics?: true
    Max angular momentum: 4

  Core potential: DEF2-TZVPPD
    Number of shells: 4
    Number of ECP primitives: 14
    Number of ECP core electrons: 28
    Max angular momentum: 3

  ==> DFJKGrad: Density-Fitted SCF Gradients <==

    Gradient:                    1
    J tasked:                  Yes
    K tasked:                   No
    wK tasked:                  No
    OpenMP threads:             28
    Integrals threads:          28
    Memory [MiB]:           102996
    Schwarz Cutoff:          1E-12
    Fitting Condition:       1E-10

   => Auxiliary Basis Set <=

  Basis Set: (DEF2-TZVPPD AUX)
    Blend: DEF2-UNIVERSAL-JKFIT
    Number of shells: 55
    Number of basis functions: 273
    Number of Cartesian functions: 404
    Spherical Harmonics?: true
    Max angular momentum: 6

  ==> DFT Potential <==

   => Composite Functional: SCAN-D3BJ <= 

    SCAN Meta-GGA XC Functional
(10.1103/PhysRevLett.115.036402)
    J. Sun, A. Ruzsinszky, J. P. Perdew  Phys. Rev. Lett. 115, 036402, 2015


    Deriv               =              1
    GGA                 =           TRUE
    Meta                =           TRUE

    Exchange Hybrid     =          FALSE
    MP2 Hybrid          =          FALSE

   => Exchange Functionals <=

    1.0000   XC_MGGA_X_SCAN

   => Correlation Functionals <=

    1.0000   XC_MGGA_C_SCAN

   => LibXC Density Thresholds  <==

    XC_MGGA_C_SCAN:  1.00E-15 
    XC_MGGA_X_SCAN:  1.00E-15 

   => Molecular Quadrature <=

    Radial Scheme          =       TREUTLER
    Pruning Scheme         =           NONE
    Nuclear Scheme         =       TREUTLER

    BS radius alpha        =              1
    Pruning alpha          =              1
    Radial Points          =             75
    Spherical Points       =            302
    Total Points           =          43133
    Total Blocks           =            397
    Max Points             =            254
    Max Functions          =             73
    Weights Tolerance      =       1.00E-15


  -Total Gradient:
     Atom            X                  Y                   Z
    ------   -----------------  -----------------  -----------------
       1        0.000000000000     0.000000000000    -0.089894626664
       2        0.000000000000     0.000000000000     0.077027610480


*** tstop() called on compute236.bc4.acrc.priv at Tue Nov  2 16:19:28 2021
Module time:
	user time   =      35.50 seconds =       0.59 minutes
	system time =       2.28 seconds =       0.04 minutes
	total time  =          6 seconds =       0.10 minutes
Total time:
	user time   =      83.93 seconds =       1.40 minutes
	system time =       4.46 seconds =       0.07 minutes
	total time  =         13 seconds =       0.22 minutes


  ==> Adding ECP gradient terms (computed numerically) <==

  -ECP Gradient:
     Atom            X                  Y                   Z
    ------   -----------------  -----------------  -----------------
       1        0.000000000000     0.000000000000     0.084737806644
       2        0.000000000000     0.000000000000    -0.084737806656


  -Total Gradient:
     Atom            X                  Y                   Z
    ------   -----------------  -----------------  -----------------
       1        0.000000000000     0.000000000000    -0.005156820019
       2        0.000000000000     0.000000000000    -0.007710196176


			-----------------------------------------
			 OPTKING 2.0: for geometry optimizations 
			  - R.A. King,  Bethel University        
			-----------------------------------------
	At level 1: Red. Int., RFO, no backsteps, dynamic trust

	Internal coordinates to be generated automatically.
	Detected frag 1 with atoms:  1 2
	---Fragment 1 Bond Connectivity---
	 1 : 2
	 2 : 1

	---Fragment 1 Geometry and Gradient---
	 AG          0.0000000000        0.0000000000        0.0284187319
	 H           0.0000000000        0.0000000000       -3.0145184308
	             0.0000000000        0.0000000000       -0.0051568200
	             0.0000000000        0.0000000000       -0.0077101962

	Previous optimization step data not found.  Starting new optimization.

	---Fragment 1 Intrafragment Coordinates---
	 - Coordinate -           - BOHR/RAD -       - ANG/DEG -
	 R(1,2)           =         3.042937	       1.610253

	Current energy   :      -147.5885040101

	Generating empirical Hessian (Schlegel '84) for each fragment.
	Taking RFO optimization step.
	Going to follow RFO solution 1.
	Using RFO vector 1.
	Norm of target step-size    0.00068
	Projected energy change by RFO approximation:        -0.0000006383

	Back-transformation to cartesian coordinates...
	Successfully converged to displaced geometry.

	--- Internal Coordinate Step in ANG or DEG, aJ/ANG or AJ/DEG ---
	 ---------------------------------------------------------------------------
	   Coordinate                Previous        Force       Change         New 
	   ----------                --------       ------       ------       ------
	    1 R(1,2)          =      1.610253    -0.010518    -0.000361     1.609892
	 ---------------------------------------------------------------------------
	Successfully symmetrized geometry.

  ==> Convergence Check <==

  Measures of convergence in internal coordinates in au.
  Criteria marked as inactive (o), active & met (*), and active & unmet ( ).
  --------------------------------------------------------------------------------------------- ~
   Step     Total Energy     Delta E     MAX Force     RMS Force      MAX Disp      RMS Disp    ~
  --------------------------------------------------------------------------------------------- ~
    Convergence Criteria    1.00e-06 *    3.00e-04 *             o    1.20e-03 *             o  ~
  --------------------------------------------------------------------------------------------- ~
      1    -147.58850401   -1.48e+02      1.28e-03      1.28e-03 o    6.82e-04 *    6.82e-04 o  ~
  ---------------------------------------------------------------------------------------------

	Writing optimization data to binary file.
	Structure for next step:
	Cartesian Geometry (in Angstrom)
	   AG     0.0000000000   0.0000000000   0.0148580206
	    H     0.0000000000   0.0000000000  -1.5950339238
			--------------------------
			 OPTKING Finished Execution 
			--------------------------

    Structure for next step:
    Molecular point group: c2v
    Full point group: C_inf_v

    Geometry (in Angstrom), charge = 0, multiplicity = 1:

    AG           0.000000000000     0.000000000000     0.015035173339
    H            0.000000000000     0.000000000000    -1.594856777354


Scratch directory: /tmp/
gradient() will perform analytic gradient computation.

*** tstart() called on compute236.bc4.acrc.priv
*** at Tue Nov  2 16:20:05 2021

   => Loading Basis Set <=

    Name: DEF2-TZVPPD
    Role: ORBITAL
    Keyword: BASIS
    atoms 1 entry AG         line  2174 (ECP: line  3646) file /mnt/storage/home/zw18965/.conda/envs/p4env/share/psi4/basis/def2-tzvppd.gbs 
    atoms 2 entry H          line    14 file /mnt/storage/home/zw18965/.conda/envs/p4env/share/psi4/basis/def2-tzvppd.gbs 

    !!!  WARNING: ECP capability is in beta. Please check occupations closely.  !!!

   => SCAN-D3(BJ): Empirical Dispersion <=

    Grimme's -D3 (BJ-damping) Dispersion Correction
    Grimme S.; Ehrlich S.; Goerigk L. (2011), J. Comput. Chem., 32: 1456
    Parametrisation from:    J.G. Brandenburg, J. E. Bates, J. Sun, J.P. Perdew, Phys. Rev. B 94, 115144, 2016

        s6 =       1.000000
        s8 =       0.000000
        a1 =       0.538000
        a2 =       5.420000


         ---------------------------------------------------------
                                   SCF
               by Justin Turney, Rob Parrish, Andy Simmonett
                          and Daniel G. A. Smith
                              RKS Reference
                       28 Threads, 137329 MiB Core
         ---------------------------------------------------------

  ==> Geometry <==

    Molecular point group: c2v
    Full point group: C_inf_v

    Geometry (in Angstrom), charge = 0, multiplicity = 1:

       Center              X                  Y                   Z               Mass       
    ------------   -----------------  -----------------  -----------------  -----------------
         AG           0.000000000000     0.000000000000     0.015035173339   106.905091600000
         H            0.000000000000     0.000000000000    -1.594856777354     1.007825032230

  Running in c2v symmetry.

  Rotational constants: A = ************  B =      6.51468  C =      6.51468 [cm^-1]
  Rotational constants: A = ************  B = 195305.12556  C = 195305.12556 [MHz]
  Nuclear repulsion =    6.245367584080896

  Charge       = 0
  Multiplicity = 1
  Electrons    = 20
  Nalpha       = 10
  Nbeta        = 10

  ==> Algorithm <==

  SCF Algorithm Type is DF.
  DIIS enabled.
  MOM disabled.
  Fractional occupation disabled.
  Guess Type is READ.
  Energy threshold   = 1.00e-08
  Density threshold  = 1.00e-08
  Integral threshold = 1.00e-12

  ==> Primary Basis <==

  Basis Set: DEF2-TZVPPD
    Blend: DEF2-TZVPPD
    Number of shells: 23
    Number of basis functions: 73
    Number of Cartesian functions: 89
    Spherical Harmonics?: true
    Max angular momentum: 4

  Core potential: DEF2-TZVPPD
    Number of shells: 4
    Number of ECP primitives: 14
    Number of ECP core electrons: 28
    Max angular momentum: 3

  ==> DFT Potential <==

   => Composite Functional: SCAN-D3BJ <= 

    SCAN Meta-GGA XC Functional
(10.1103/PhysRevLett.115.036402)
    J. Sun, A. Ruzsinszky, J. P. Perdew  Phys. Rev. Lett. 115, 036402, 2015


    Deriv               =              1
    GGA                 =           TRUE
    Meta                =           TRUE

    Exchange Hybrid     =          FALSE
    MP2 Hybrid          =          FALSE

   => Exchange Functionals <=

    1.0000   XC_MGGA_X_SCAN

   => Correlation Functionals <=

    1.0000   XC_MGGA_C_SCAN

   => LibXC Density Thresholds  <==

    XC_MGGA_C_SCAN:  1.00E-15 
    XC_MGGA_X_SCAN:  1.00E-15 

   => Molecular Quadrature <=

    Radial Scheme          =       TREUTLER
    Pruning Scheme         =           NONE
    Nuclear Scheme         =       TREUTLER

    BS radius alpha        =              1
    Pruning alpha          =              1
    Radial Points          =             75
    Spherical Points       =            302
    Total Points           =          43133
    Total Blocks           =            397
    Max Points             =            254
    Max Functions          =             73
    Weights Tolerance      =       1.00E-15

   => Loading Basis Set <=

    Name: (DEF2-TZVPPD AUX)
    Role: JKFIT
    Keyword: DF_BASIS_SCF
    atoms 1 entry AG         line  4364 file /mnt/storage/home/zw18965/.conda/envs/p4env/share/psi4/basis/def2-universal-jkfit.gbs 
    atoms 2 entry H          line    18 file /mnt/storage/home/zw18965/.conda/envs/p4env/share/psi4/basis/def2-universal-jkfit.gbs 

   => Loading Basis Set <=

    Name: DEF2-TZVPPD
    Role: ORBITAL
    Keyword: BASIS
    atoms 1 entry AG         line  2174 (ECP: line  3646) file /mnt/storage/home/zw18965/.conda/envs/p4env/share/psi4/basis/def2-tzvppd.gbs 
    atoms 2 entry H          line    14 file /mnt/storage/home/zw18965/.conda/envs/p4env/share/psi4/basis/def2-tzvppd.gbs 

    !!!  WARNING: ECP capability is in beta. Please check occupations closely.  !!!

  Reading orbitals from file /tmp/Ag01N0_H.default.27912.180.npy, no projection.

  ==> Integral Setup <==

  DFHelper Memory: AOs need 0.014 GiB; user supplied 100.378 GiB. Using in-core AOs.

  ==> MemDFJK: Density-Fitted J/K Matrices <==

    J tasked:                   Yes
    K tasked:                    No
    wK tasked:                   No
    OpenMP threads:              28
    Memory [MiB]:            102787
    Algorithm:                 Core
    Schwarz Cutoff:           1E-12
    Mask sparsity (%):       0.0000
    Fitting Condition:        1E-10

   => Auxiliary Basis Set <=

  Basis Set: (DEF2-TZVPPD AUX)
    Blend: DEF2-UNIVERSAL-JKFIT
    Number of shells: 55
    Number of basis functions: 273
    Number of Cartesian functions: 404
    Spherical Harmonics?: true
    Max angular momentum: 6

  Cached 100.0% of DFT collocation blocks in 0.205 [GiB].

  Minimum eigenvalue in the overlap matrix is 3.3115630683E-03.
  Reciprocal condition number of the overlap matrix is 7.9181461497E-04.
    Using symmetric orthogonalization.

  ==> Pre-Iterations <==

  SCF Guess: Orbitals guess was supplied from a previous computation.

   -------------------------------------------------------
    Irrep   Nso     Nmo     Nalpha   Nbeta   Ndocc  Nsocc
   -------------------------------------------------------
     A1        31      31       5       5       5       0
     A2         8       8       1       1       1       0
     B1        17      17       2       2       2       0
     B2        17      17       2       2       2       0
   -------------------------------------------------------
    Total      73      73      10      10      10       0
   -------------------------------------------------------

  ==> Iterations <==

                           Total Energy        Delta E     RMS |[F,P]|

   @DF-RKS iter   0:  -147.58857534641771   -1.47589e+02   1.16565e-05 
   @DF-RKS iter   1:  -147.58850926296478    6.60835e-05   3.62312e-06 DIIS
   @DF-RKS iter   2:  -147.58850924780066    1.51641e-08   6.09526e-06 DIIS
   @DF-RKS iter   3:  -147.58850927374351   -2.59429e-08   2.91345e-07 DIIS
   @DF-RKS iter   4:  -147.58850927378646   -4.29452e-11   1.82636e-07 DIIS
   @DF-RKS iter   5:  -147.58850927380229   -1.58309e-11   3.26770e-08 DIIS
   @DF-RKS iter   6:  -147.58850927380323   -9.37916e-13   1.24653e-08 DIIS
   @DF-RKS iter   7:  -147.58850927380337   -1.42109e-13   1.55677e-09 DIIS
  Energy and wave function converged.


  ==> Post-Iterations <==

   Electrons on quadrature grid:
      Ntotal   =   19.9999990910 ; deviation = -9.090e-07 

    Orbital Energies [Eh]
    ---------------------

    Doubly Occupied:                                                      

       1A1    -3.707021     2A1    -2.301484     1B1    -2.290107  
       1B2    -2.290107     3A1    -0.355397     2B2    -0.298264  
       2B1    -0.298264     4A1    -0.287852     1A2    -0.287851  
       5A1    -0.225078  

    Virtual:                                                              

       6A1    -0.097782     3B1    -0.009081     3B2    -0.009081  
       7A1     0.095204     8A1     0.104703     4B2     0.179044  
       4B1     0.179044     9A1     0.187683     5B1     0.234653  
       5B2     0.234653    10A1     0.406776    11A1     0.410924  
       2A2     0.410928    12A1     0.479781     6B1     0.532089  
       6B2     0.532089    13A1     0.596026     7B1     0.875590  
       7B2     0.875590    14A1     1.093111     3A2     1.565099  
      15A1     1.565113     8B2     1.578001     8B1     1.578001  
       9B2     1.597436     9B1     1.597436    10B2     1.651069  
      10B1     1.651069    16A1     1.662018    17A1     1.852746  
       4A2     2.028659    18A1     2.028662    19A1     2.045395  
      11B2     2.094491    11B1     2.094491    20A1     2.233877  
      21A1     2.694801    22A1     3.314068     5A2     3.314189  
      12B2     3.524478    12B1     3.524478    13B2     3.964154  
      13B1     3.964154    23A1     3.987074    24A1     4.641110  
      14B2     4.861763    14B1     4.861763    25A1     4.874493  
       6A2     4.874518    15B2     5.057921    15B1     5.057921  
      26A1     5.264422    16B2     5.620248    16B1     5.620248  
      27A1     5.621891     7A2     5.621903     8A2     5.626115  
      28A1     5.626116    17B1     5.763102    17B2     5.763102  
      29A1     6.248804    30A1    33.648792    31A1   110.907046  

    Final Occupation by Irrep:
             A1    A2    B1    B2 
    DOCC [     5,    1,    2,    2 ]

  @DF-RKS Final Energy:  -147.58850927380337

   => Energetics <=

    Nuclear Repulsion Energy =              6.2453675840808964
    One-Electron Energy =                -273.9292730343700555
    Two-Electron Energy =                 134.5797755870144670
    DFT Exchange-Correlation Energy =     -14.4843040905286493
    Empirical Dispersion Energy =          -0.0000753200000000
    VV10 Nonlocal Energy =                  0.0000000000000000
    Total Energy =                       -147.5885092738033393

Computation Completed


Properties will be evaluated at   0.000000,   0.000000,   0.000000 [a0]

Properties computed using the SCF density matrix

  Nuclear Dipole Moment: [e a0]
     X:     0.0000      Y:     0.0000      Z:    -2.4740

  Electronic Dipole Moment: [e a0]
     X:     0.0000      Y:     0.0000      Z:     3.4778

  Dipole Moment: [e a0]
     X:     0.0000      Y:     0.0000      Z:     1.0038     Total:     1.0038

  Dipole Moment: [D]
     X:     0.0000      Y:     0.0000      Z:     2.5515     Total:     2.5515


*** tstop() called on compute236.bc4.acrc.priv at Tue Nov  2 16:20:07 2021
Module time:
	user time   =      34.76 seconds =       0.58 minutes
	system time =       1.19 seconds =       0.02 minutes
	total time  =          2 seconds =       0.03 minutes
Total time:
	user time   =     329.44 seconds =       5.49 minutes
	system time =      10.01 seconds =       0.17 minutes
	total time  =         52 seconds =       0.87 minutes

*** tstart() called on compute236.bc4.acrc.priv
*** at Tue Nov  2 16:20:08 2021


         ------------------------------------------------------------
                                   SCF GRAD                          
                          Rob Parrish, Justin Turney,                
                       Andy Simmonett, and Alex Sokolov              
         ------------------------------------------------------------

  ==> Geometry <==

    Molecular point group: c2v
    Full point group: C_inf_v

    Geometry (in Angstrom), charge = 0, multiplicity = 1:

       Center              X                  Y                   Z               Mass       
    ------------   -----------------  -----------------  -----------------  -----------------
         AG           0.000000000000     0.000000000000     0.015035173339   106.905091600000
         H            0.000000000000     0.000000000000    -1.594856777354     1.007825032230

  Nuclear repulsion =    6.245367584080896

  ==> Basis Set <==

  Basis Set: DEF2-TZVPPD
    Blend: DEF2-TZVPPD
    Number of shells: 23
    Number of basis functions: 73
    Number of Cartesian functions: 89
    Spherical Harmonics?: true
    Max angular momentum: 4

  Core potential: DEF2-TZVPPD
    Number of shells: 4
    Number of ECP primitives: 14
    Number of ECP core electrons: 28
    Max angular momentum: 3

  ==> DFJKGrad: Density-Fitted SCF Gradients <==

    Gradient:                    1
    J tasked:                  Yes
    K tasked:                   No
    wK tasked:                  No
    OpenMP threads:             28
    Integrals threads:          28
    Memory [MiB]:           102996
    Schwarz Cutoff:          1E-12
    Fitting Condition:       1E-10

   => Auxiliary Basis Set <=

  Basis Set: (DEF2-TZVPPD AUX)
    Blend: DEF2-UNIVERSAL-JKFIT
    Number of shells: 55
    Number of basis functions: 273
    Number of Cartesian functions: 404
    Spherical Harmonics?: true
    Max angular momentum: 6

  ==> DFT Potential <==

   => Composite Functional: SCAN-D3BJ <= 

    SCAN Meta-GGA XC Functional
(10.1103/PhysRevLett.115.036402)
    J. Sun, A. Ruzsinszky, J. P. Perdew  Phys. Rev. Lett. 115, 036402, 2015


    Deriv               =              1
    GGA                 =           TRUE
    Meta                =           TRUE

    Exchange Hybrid     =          FALSE
    MP2 Hybrid          =          FALSE

   => Exchange Functionals <=

    1.0000   XC_MGGA_X_SCAN

   => Correlation Functionals <=

    1.0000   XC_MGGA_C_SCAN

   => LibXC Density Thresholds  <==

    XC_MGGA_C_SCAN:  1.00E-15 
    XC_MGGA_X_SCAN:  1.00E-15 

   => Molecular Quadrature <=

    Radial Scheme          =       TREUTLER
    Pruning Scheme         =           NONE
    Nuclear Scheme         =       TREUTLER

    BS radius alpha        =              1
    Pruning alpha          =              1
    Radial Points          =             75
    Spherical Points       =            302
    Total Points           =          43133
    Total Blocks           =            397
    Max Points             =            254
    Max Functions          =             73
    Weights Tolerance      =       1.00E-15


  -Total Gradient:
     Atom            X                  Y                   Z
    ------   -----------------  -----------------  -----------------
       1        0.000000000000     0.000000000000    -0.090043783090
       2       -0.000000000000     0.000000000000     0.077173016007


*** tstop() called on compute236.bc4.acrc.priv at Tue Nov  2 16:20:12 2021
Module time:
	user time   =      32.44 seconds =       0.54 minutes
	system time =       1.41 seconds =       0.02 minutes
	total time  =          4 seconds =       0.07 minutes
Total time:
	user time   =     364.76 seconds =       6.08 minutes
	system time =      11.59 seconds =       0.19 minutes
	total time  =         57 seconds =       0.95 minutes


  ==> Adding ECP gradient terms (computed numerically) <==

  -ECP Gradient:
     Atom            X                  Y                   Z
    ------   -----------------  -----------------  -----------------
       1       -0.000000000000     0.000000000000     0.084806374190
       2       -0.000000000000     0.000000000000    -0.084806374190


  -Total Gradient:
     Atom            X                  Y                   Z
    ------   -----------------  -----------------  -----------------
       1       -0.000000000000     0.000000000000    -0.005237408900
       2       -0.000000000000     0.000000000000    -0.007633358183


			-----------------------------------------
			 OPTKING 2.0: for geometry optimizations 
			  - R.A. King,  Bethel University        
			-----------------------------------------
	At level 1: Red. Int., RFO, no backsteps, dynamic trust

	Previous internal coordinate definitions found.
	---Fragment 1 Geometry and Gradient---
	 AG          0.0000000000        0.0000000000        0.0284123599
	 H           0.0000000000        0.0000000000       -3.0138425185
	            -0.0000000000        0.0000000000       -0.0052374089
	            -0.0000000000        0.0000000000       -0.0076333582

	---Fragment 1 Intrafragment Coordinates---
	 - Coordinate -           - BOHR/RAD -       - ANG/DEG -
	 R(1,2)           =         3.042255	       1.609892

	Current energy   :      -147.5885092738

	Energy change for the previous step:
		Projected    :        -0.0000006383
		Actual       :        -0.0000052637
	Energy ratio indicates good step: Trust radius increased to 1.000e+00.


	Performing BFGS update.
	Previous computed or guess Hessian on step 1.
	Steps to be used in Hessian update: 1
	Taking RFO optimization step.
	Going to follow RFO solution 1.
	Using RFO vector 1.
	Norm of target step-size    0.00138
	Projected energy change by RFO approximation:        -0.0000007019

	Back-transformation to cartesian coordinates...
	Successfully converged to displaced geometry.

	--- Internal Coordinate Step in ANG or DEG, aJ/ANG or AJ/DEG ---
	 ---------------------------------------------------------------------------
	   Coordinate                Previous        Force       Change         New 
	   ----------                --------       ------       ------       ------
	    1 R(1,2)          =      1.609892    -0.009870    -0.000728     1.609164
	 ---------------------------------------------------------------------------
	Successfully symmetrized geometry.

  ==> Convergence Check <==

  Measures of convergence in internal coordinates in au.
  Criteria marked as inactive (o), active & met (*), and active & unmet ( ).
  ---------------------------------------------------------------------------------------------
   Step     Total Energy     Delta E     MAX Force     RMS Force      MAX Disp      RMS Disp   
  ---------------------------------------------------------------------------------------------
    Convergence Criteria    1.00e-06 *    3.00e-04 *             o    1.20e-03 *             o
  ---------------------------------------------------------------------------------------------
      2    -147.58850927   -5.26e-06      1.20e-03      1.20e-03 o    1.38e-03      1.38e-03 o  ~
  ---------------------------------------------------------------------------------------------

	Writing optimization data to binary file.
	Structure for next step:
	Cartesian Geometry (in Angstrom)
	   AG     0.0000000000   0.0000000000   0.0146713402
	    H     0.0000000000   0.0000000000  -1.5944929380
			--------------------------
			 OPTKING Finished Execution 
			--------------------------

    Structure for next step:
    Molecular point group: c2v
    Full point group: C_inf_v

    Geometry (in Angstrom), charge = 0, multiplicity = 1:

    AG           0.000000000000     0.000000000000     0.015028377487
    H            0.000000000000     0.000000000000    -1.594135907012


Scratch directory: /tmp/
gradient() will perform analytic gradient computation.

*** tstart() called on compute236.bc4.acrc.priv
*** at Tue Nov  2 16:20:50 2021

   => Loading Basis Set <=

    Name: DEF2-TZVPPD
    Role: ORBITAL
    Keyword: BASIS
    atoms 1 entry AG         line  2174 (ECP: line  3646) file /mnt/storage/home/zw18965/.conda/envs/p4env/share/psi4/basis/def2-tzvppd.gbs 
    atoms 2 entry H          line    14 file /mnt/storage/home/zw18965/.conda/envs/p4env/share/psi4/basis/def2-tzvppd.gbs 

    !!!  WARNING: ECP capability is in beta. Please check occupations closely.  !!!

   => SCAN-D3(BJ): Empirical Dispersion <=

    Grimme's -D3 (BJ-damping) Dispersion Correction
    Grimme S.; Ehrlich S.; Goerigk L. (2011), J. Comput. Chem., 32: 1456
    Parametrisation from:    J.G. Brandenburg, J. E. Bates, J. Sun, J.P. Perdew, Phys. Rev. B 94, 115144, 2016

        s6 =       1.000000
        s8 =       0.000000
        a1 =       0.538000
        a2 =       5.420000


         ---------------------------------------------------------
                                   SCF
               by Justin Turney, Rob Parrish, Andy Simmonett
                          and Daniel G. A. Smith
                              RKS Reference
                       28 Threads, 137329 MiB Core
         ---------------------------------------------------------

  ==> Geometry <==

    Molecular point group: c2v
    Full point group: C_inf_v

    Geometry (in Angstrom), charge = 0, multiplicity = 1:

       Center              X                  Y                   Z               Mass       
    ------------   -----------------  -----------------  -----------------  -----------------
         AG           0.000000000000     0.000000000000     0.015028377487   106.905091600000
         H            0.000000000000     0.000000000000    -1.594135907012     1.007825032230

  Running in c2v symmetry.

  Rotational constants: A = ************  B =      6.52057  C =      6.52057 [cm^-1]
  Rotational constants: A = ************  B = 195481.79996  C = 195481.79996 [MHz]
  Nuclear repulsion =    6.248191747468844

  Charge       = 0
  Multiplicity = 1
  Electrons    = 20
  Nalpha       = 10
  Nbeta        = 10

  ==> Algorithm <==

  SCF Algorithm Type is DF.
  DIIS enabled.
  MOM disabled.
  Fractional occupation disabled.
  Guess Type is READ.
  Energy threshold   = 1.00e-08
  Density threshold  = 1.00e-08
  Integral threshold = 1.00e-12

  ==> Primary Basis <==

  Basis Set: DEF2-TZVPPD
    Blend: DEF2-TZVPPD
    Number of shells: 23
    Number of basis functions: 73
    Number of Cartesian functions: 89
    Spherical Harmonics?: true
    Max angular momentum: 4

  Core potential: DEF2-TZVPPD
    Number of shells: 4
    Number of ECP primitives: 14
    Number of ECP core electrons: 28
    Max angular momentum: 3

  ==> DFT Potential <==

   => Composite Functional: SCAN-D3BJ <= 

    SCAN Meta-GGA XC Functional
(10.1103/PhysRevLett.115.036402)
    J. Sun, A. Ruzsinszky, J. P. Perdew  Phys. Rev. Lett. 115, 036402, 2015


    Deriv               =              1
    GGA                 =           TRUE
    Meta                =           TRUE

    Exchange Hybrid     =          FALSE
    MP2 Hybrid          =          FALSE

   => Exchange Functionals <=

    1.0000   XC_MGGA_X_SCAN

   => Correlation Functionals <=

    1.0000   XC_MGGA_C_SCAN

   => LibXC Density Thresholds  <==

    XC_MGGA_C_SCAN:  1.00E-15 
    XC_MGGA_X_SCAN:  1.00E-15 

   => Molecular Quadrature <=

    Radial Scheme          =       TREUTLER
    Pruning Scheme         =           NONE
    Nuclear Scheme         =       TREUTLER

    BS radius alpha        =              1
    Pruning alpha          =              1
    Radial Points          =             75
    Spherical Points       =            302
    Total Points           =          43134
    Total Blocks           =            397
    Max Points             =            254
    Max Functions          =             73
    Weights Tolerance      =       1.00E-15

   => Loading Basis Set <=

    Name: (DEF2-TZVPPD AUX)
    Role: JKFIT
    Keyword: DF_BASIS_SCF
    atoms 1 entry AG         line  4364 file /mnt/storage/home/zw18965/.conda/envs/p4env/share/psi4/basis/def2-universal-jkfit.gbs 
    atoms 2 entry H          line    18 file /mnt/storage/home/zw18965/.conda/envs/p4env/share/psi4/basis/def2-universal-jkfit.gbs 

   => Loading Basis Set <=

    Name: DEF2-TZVPPD
    Role: ORBITAL
    Keyword: BASIS
    atoms 1 entry AG         line  2174 (ECP: line  3646) file /mnt/storage/home/zw18965/.conda/envs/p4env/share/psi4/basis/def2-tzvppd.gbs 
    atoms 2 entry H          line    14 file /mnt/storage/home/zw18965/.conda/envs/p4env/share/psi4/basis/def2-tzvppd.gbs 

    !!!  WARNING: ECP capability is in beta. Please check occupations closely.  !!!

  Reading orbitals from file /tmp/Ag01N0_H.default.27912.180.npy, no projection.

  ==> Integral Setup <==

  DFHelper Memory: AOs need 0.014 GiB; user supplied 100.378 GiB. Using in-core AOs.

  ==> MemDFJK: Density-Fitted J/K Matrices <==

    J tasked:                   Yes
    K tasked:                    No
    wK tasked:                   No
    OpenMP threads:              28
    Memory [MiB]:            102787
    Algorithm:                 Core
    Schwarz Cutoff:           1E-12
    Mask sparsity (%):       0.0000
    Fitting Condition:        1E-10

   => Auxiliary Basis Set <=

  Basis Set: (DEF2-TZVPPD AUX)
    Blend: DEF2-UNIVERSAL-JKFIT
    Number of shells: 55
    Number of basis functions: 273
    Number of Cartesian functions: 404
    Spherical Harmonics?: true
    Max angular momentum: 6

  Cached 100.0% of DFT collocation blocks in 0.205 [GiB].

  Minimum eigenvalue in the overlap matrix is 3.3022232755E-03.
  Reciprocal condition number of the overlap matrix is 7.8948439029E-04.
    Using symmetric orthogonalization.

  ==> Pre-Iterations <==

  SCF Guess: Orbitals guess was supplied from a previous computation.

   -------------------------------------------------------
    Irrep   Nso     Nmo     Nalpha   Nbeta   Ndocc  Nsocc
   -------------------------------------------------------
     A1        31      31       5       5       5       0
     A2         8       8       1       1       1       0
     B1        17      17       2       2       2       0
     B2        17      17       2       2       2       0
   -------------------------------------------------------
    Total      73      73      10      10      10       0
   -------------------------------------------------------

  ==> Iterations <==

                           Total Energy        Delta E     RMS |[F,P]|

   @DF-RKS iter   0:  -147.58865297002453   -1.47589e+02   2.35245e-05 
   @DF-RKS iter   1:  -147.58851967802539    1.33292e-04   7.30410e-06 DIIS
   @DF-RKS iter   2:  -147.58851961653050    6.14949e-08   1.22869e-05 DIIS
   @DF-RKS iter   3:  -147.58851972177530   -1.05245e-07   5.84299e-07 DIIS
   @DF-RKS iter   4:  -147.58851972195018   -1.74879e-10   3.64130e-07 DIIS
   @DF-RKS iter   5:  -147.58851972201296   -6.27836e-11   6.59563e-08 DIIS
   @DF-RKS iter   6:  -147.58851972201694   -3.97904e-12   2.51720e-08 DIIS
   @DF-RKS iter   7:  -147.58851972201742   -4.83169e-13   3.13773e-09 DIIS
  Energy and wave function converged.


  ==> Post-Iterations <==

   Electrons on quadrature grid:
      Ntotal   =   19.9999990954 ; deviation = -9.046e-07 

    Orbital Energies [Eh]
    ---------------------

    Doubly Occupied:                                                      

       1A1    -3.707054     2A1    -2.301531     1B2    -2.290132  
       1B1    -2.290132     3A1    -0.355526     2B1    -0.298300  
       2B2    -0.298300     4A1    -0.287866     1A2    -0.287866  
       5A1    -0.225076  

    Virtual:                                                              

       6A1    -0.097746     3B2    -0.009083     3B1    -0.009083  
       7A1     0.095239     8A1     0.104713     4B2     0.179048  
       4B1     0.179048     9A1     0.187736     5B1     0.234697  
       5B2     0.234697    10A1     0.406906    11A1     0.410930  
       2A2     0.410933    12A1     0.479764     6B1     0.532153  
       6B2     0.532153    13A1     0.596114     7B1     0.875560  
       7B2     0.875560    14A1     1.093332     3A2     1.565061  
      15A1     1.565075     8B2     1.577999     8B1     1.577999  
       9B1     1.597479     9B2     1.597479    10B2     1.651214  
      10B1     1.651214    16A1     1.662024    17A1     1.853045  
       4A2     2.028659    18A1     2.028663    19A1     2.045119  
      11B1     2.094572    11B2     2.094572    20A1     2.234595  
      21A1     2.694831    22A1     3.314049     5A2     3.314169  
      12B2     3.525006    12B1     3.525006    13B2     3.964265  
      13B1     3.964265    23A1     3.987716    24A1     4.642471  
      14B2     4.861744    14B1     4.861744    25A1     4.874537  
       6A2     4.874562    15B2     5.058117    15B1     5.058117  
      26A1     5.264288    16B2     5.620226    16B1     5.620226  
      27A1     5.621909     7A2     5.621921     8A2     5.626103  
      28A1     5.626103    17B2     5.763814    17B1     5.763814  
      29A1     6.250434    30A1    33.649586    31A1   110.907257  

    Final Occupation by Irrep:
             A1    A2    B1    B2 
    DOCC [     5,    1,    2,    2 ]

  @DF-RKS Final Energy:  -147.58851972201742

   => Energetics <=

    Nuclear Repulsion Energy =              6.2481917474688444
    One-Electron Energy =                -273.9341980583838563
    Two-Electron Energy =                 134.5819377780581476
    DFT Exchange-Correlation Energy =     -14.4843758691605728
    Empirical Dispersion Energy =          -0.0000753200000000
    VV10 Nonlocal Energy =                  0.0000000000000000
    Total Energy =                       -147.5885197220174234

Computation Completed


Properties will be evaluated at   0.000000,   0.000000,   0.000000 [a0]

Properties computed using the SCF density matrix

  Nuclear Dipole Moment: [e a0]
     X:     0.0000      Y:     0.0000      Z:    -2.4729

  Electronic Dipole Moment: [e a0]
     X:     0.0000      Y:     0.0000      Z:     3.4764

  Dipole Moment: [e a0]
     X:     0.0000      Y:     0.0000      Z:     1.0035     Total:     1.0035

  Dipole Moment: [D]
     X:     0.0000      Y:     0.0000      Z:     2.5506     Total:     2.5506


*** tstop() called on compute236.bc4.acrc.priv at Tue Nov  2 16:20:52 2021
Module time:
	user time   =      34.52 seconds =       0.58 minutes
	system time =       1.21 seconds =       0.02 minutes
	total time  =          2 seconds =       0.03 minutes
Total time:
	user time   =     610.82 seconds =      10.18 minutes
	system time =      16.97 seconds =       0.28 minutes
	total time  =         97 seconds =       1.62 minutes

*** tstart() called on compute236.bc4.acrc.priv
*** at Tue Nov  2 16:20:52 2021


         ------------------------------------------------------------
                                   SCF GRAD                          
                          Rob Parrish, Justin Turney,                
                       Andy Simmonett, and Alex Sokolov              
         ------------------------------------------------------------

  ==> Geometry <==

    Molecular point group: c2v
    Full point group: C_inf_v

    Geometry (in Angstrom), charge = 0, multiplicity = 1:

       Center              X                  Y                   Z               Mass       
    ------------   -----------------  -----------------  -----------------  -----------------
         AG           0.000000000000     0.000000000000     0.015028377487   106.905091600000
         H            0.000000000000     0.000000000000    -1.594135907012     1.007825032230

  Nuclear repulsion =    6.248191747468844

  ==> Basis Set <==

  Basis Set: DEF2-TZVPPD
    Blend: DEF2-TZVPPD
    Number of shells: 23
    Number of basis functions: 73
    Number of Cartesian functions: 89
    Spherical Harmonics?: true
    Max angular momentum: 4

  Core potential: DEF2-TZVPPD
    Number of shells: 4
    Number of ECP primitives: 14
    Number of ECP core electrons: 28
    Max angular momentum: 3

  ==> DFJKGrad: Density-Fitted SCF Gradients <==

    Gradient:                    1
    J tasked:                  Yes
    K tasked:                   No
    wK tasked:                  No
    OpenMP threads:             28
    Integrals threads:          28
    Memory [MiB]:           102996
    Schwarz Cutoff:          1E-12
    Fitting Condition:       1E-10

   => Auxiliary Basis Set <=

  Basis Set: (DEF2-TZVPPD AUX)
    Blend: DEF2-UNIVERSAL-JKFIT
    Number of shells: 55
    Number of basis functions: 273
    Number of Cartesian functions: 404
    Spherical Harmonics?: true
    Max angular momentum: 6

  ==> DFT Potential <==

   => Composite Functional: SCAN-D3BJ <= 

    SCAN Meta-GGA XC Functional
(10.1103/PhysRevLett.115.036402)
    J. Sun, A. Ruzsinszky, J. P. Perdew  Phys. Rev. Lett. 115, 036402, 2015


    Deriv               =              1
    GGA                 =           TRUE
    Meta                =           TRUE

    Exchange Hybrid     =          FALSE
    MP2 Hybrid          =          FALSE

   => Exchange Functionals <=

    1.0000   XC_MGGA_X_SCAN

   => Correlation Functionals <=

    1.0000   XC_MGGA_C_SCAN

   => LibXC Density Thresholds  <==

    XC_MGGA_C_SCAN:  1.00E-15 
    XC_MGGA_X_SCAN:  1.00E-15 

   => Molecular Quadrature <=

    Radial Scheme          =       TREUTLER
    Pruning Scheme         =           NONE
    Nuclear Scheme         =       TREUTLER

    BS radius alpha        =              1
    Pruning alpha          =              1
    Radial Points          =             75
    Spherical Points       =            302
    Total Points           =          43134
    Total Blocks           =            397
    Max Points             =            254
    Max Functions          =             73
    Weights Tolerance      =       1.00E-15


  -Total Gradient:
     Atom            X                  Y                   Z
    ------   -----------------  -----------------  -----------------
       1        0.000000000000     0.000000000000    -0.090345203071
       2       -0.000000000000     0.000000000000     0.077466636297


*** tstop() called on compute236.bc4.acrc.priv at Tue Nov  2 16:20:57 2021
Module time:
	user time   =      33.04 seconds =       0.55 minutes
	system time =       1.43 seconds =       0.02 minutes
	total time  =          5 seconds =       0.08 minutes
Total time:
	user time   =     646.91 seconds =      10.78 minutes
	system time =      18.54 seconds =       0.31 minutes
	total time  =        102 seconds =       1.70 minutes


  ==> Adding ECP gradient terms (computed numerically) <==

  -ECP Gradient:
     Atom            X                  Y                   Z
    ------   -----------------  -----------------  -----------------
       1        0.000000000000     0.000000000000     0.084944827110
       2        0.000000000000     0.000000000000    -0.084944827104


  -Total Gradient:
     Atom            X                  Y                   Z
    ------   -----------------  -----------------  -----------------
       1        0.000000000000     0.000000000000    -0.005400375961
       2       -0.000000000000     0.000000000000    -0.007478190807


			-----------------------------------------
			 OPTKING 2.0: for geometry optimizations 
			  - R.A. King,  Bethel University        
			-----------------------------------------
	At level 1: Red. Int., RFO, no backsteps, dynamic trust

	Previous internal coordinate definitions found.
	---Fragment 1 Geometry and Gradient---
	 AG          0.0000000000        0.0000000000        0.0283995176
	 H           0.0000000000        0.0000000000       -3.0124802710
	             0.0000000000        0.0000000000       -0.0054003760
	            -0.0000000000        0.0000000000       -0.0074781908

	---Fragment 1 Intrafragment Coordinates---
	 - Coordinate -           - BOHR/RAD -       - ANG/DEG -
	 R(1,2)           =         3.040880	       1.609164

	Current energy   :      -147.5885197220

	Energy change for the previous step:
		Projected    :        -0.0000007019
		Actual       :        -0.0000104482

	Performing BFGS update.
	Previous computed or guess Hessian on step 1.
	Steps to be used in Hessian update: 2 1
	Taking RFO optimization step.
	Going to follow RFO solution 1.
	Using RFO vector 1.
	Norm of target step-size    0.00899
	Projected energy change by RFO approximation:         0.0000310544

	Back-transformation to cartesian coordinates...
	Successfully converged to displaced geometry.

	--- Internal Coordinate Step in ANG or DEG, aJ/ANG or AJ/DEG ---
	 ---------------------------------------------------------------------------
	   Coordinate                Previous        Force       Change         New 
	   ----------                --------       ------       ------       ------
	    1 R(1,2)          =      1.609164    -0.008559    -0.004756     1.604408
	 ---------------------------------------------------------------------------
	Successfully symmetrized geometry.

  ==> Convergence Check <==

  Measures of convergence in internal coordinates in au.
  Criteria marked as inactive (o), active & met (*), and active & unmet ( ).
  ---------------------------------------------------------------------------------------------
   Step     Total Energy     Delta E     MAX Force     RMS Force      MAX Disp      RMS Disp   
  ---------------------------------------------------------------------------------------------
    Convergence Criteria    1.00e-06 *    3.00e-04 *             o    1.20e-03 *             o
  ---------------------------------------------------------------------------------------------
      3    -147.58851972   -1.04e-05      1.04e-03      1.04e-03 o    8.99e-03      8.99e-03 o  ~
  ---------------------------------------------------------------------------------------------

	Writing optimization data to binary file.
	Structure for next step:
	Cartesian Geometry (in Angstrom)
	   AG     0.0000000000   0.0000000000   0.0126501704
	    H     0.0000000000   0.0000000000  -1.5917576938
			--------------------------
			 OPTKING Finished Execution 
			--------------------------

    Structure for next step:
    Molecular point group: c2v
    Full point group: C_inf_v

    Geometry (in Angstrom), charge = 0, multiplicity = 1:

    AG           0.000000000000     0.000000000000     0.014983956177
    H            0.000000000000     0.000000000000    -1.589423914326


Scratch directory: /tmp/
gradient() will perform analytic gradient computation.

*** tstart() called on compute236.bc4.acrc.priv
*** at Tue Nov  2 16:21:34 2021

   => Loading Basis Set <=

    Name: DEF2-TZVPPD
    Role: ORBITAL
    Keyword: BASIS
    atoms 1 entry AG         line  2174 (ECP: line  3646) file /mnt/storage/home/zw18965/.conda/envs/p4env/share/psi4/basis/def2-tzvppd.gbs 
    atoms 2 entry H          line    14 file /mnt/storage/home/zw18965/.conda/envs/p4env/share/psi4/basis/def2-tzvppd.gbs 

    !!!  WARNING: ECP capability is in beta. Please check occupations closely.  !!!

   => SCAN-D3(BJ): Empirical Dispersion <=

    Grimme's -D3 (BJ-damping) Dispersion Correction
    Grimme S.; Ehrlich S.; Goerigk L. (2011), J. Comput. Chem., 32: 1456
    Parametrisation from:    J.G. Brandenburg, J. E. Bates, J. Sun, J.P. Perdew, Phys. Rev. B 94, 115144, 2016

        s6 =       1.000000
        s8 =       0.000000
        a1 =       0.538000
        a2 =       5.420000


         ---------------------------------------------------------
                                   SCF
               by Justin Turney, Rob Parrish, Andy Simmonett
                          and Daniel G. A. Smith
                              RKS Reference
                       28 Threads, 137329 MiB Core
         ---------------------------------------------------------

  ==> Geometry <==

    Molecular point group: c2v
    Full point group: C_inf_v

    Geometry (in Angstrom), charge = 0, multiplicity = 1:

       Center              X                  Y                   Z               Mass       
    ------------   -----------------  -----------------  -----------------  -----------------
         AG           0.000000000000     0.000000000000     0.014983956177   106.905091600000
         H            0.000000000000     0.000000000000    -1.589423914326     1.007825032230

  Running in c2v symmetry.

  Rotational constants: A = ************  B =      6.55929  C =      6.55929 [cm^-1]
  Rotational constants: A = ************  B = 196642.56539  C = 196642.56539 [MHz]
  Nuclear repulsion =    6.266715083847147

  Charge       = 0
  Multiplicity = 1
  Electrons    = 20
  Nalpha       = 10
  Nbeta        = 10

  ==> Algorithm <==

  SCF Algorithm Type is DF.
  DIIS enabled.
  MOM disabled.
  Fractional occupation disabled.
  Guess Type is READ.
  Energy threshold   = 1.00e-08
  Density threshold  = 1.00e-08
  Integral threshold = 1.00e-12

  ==> Primary Basis <==

  Basis Set: DEF2-TZVPPD
    Blend: DEF2-TZVPPD
    Number of shells: 23
    Number of basis functions: 73
    Number of Cartesian functions: 89
    Spherical Harmonics?: true
    Max angular momentum: 4

  Core potential: DEF2-TZVPPD
    Number of shells: 4
    Number of ECP primitives: 14
    Number of ECP core electrons: 28
    Max angular momentum: 3

  ==> DFT Potential <==

   => Composite Functional: SCAN-D3BJ <= 

    SCAN Meta-GGA XC Functional
(10.1103/PhysRevLett.115.036402)
    J. Sun, A. Ruzsinszky, J. P. Perdew  Phys. Rev. Lett. 115, 036402, 2015


    Deriv               =              1
    GGA                 =           TRUE
    Meta                =           TRUE

    Exchange Hybrid     =          FALSE
    MP2 Hybrid          =          FALSE

   => Exchange Functionals <=

    1.0000   XC_MGGA_X_SCAN

   => Correlation Functionals <=

    1.0000   XC_MGGA_C_SCAN

   => LibXC Density Thresholds  <==

    XC_MGGA_C_SCAN:  1.00E-15 
    XC_MGGA_X_SCAN:  1.00E-15 

   => Molecular Quadrature <=

    Radial Scheme          =       TREUTLER
    Pruning Scheme         =           NONE
    Nuclear Scheme         =       TREUTLER

    BS radius alpha        =              1
    Pruning alpha          =              1
    Radial Points          =             75
    Spherical Points       =            302
    Total Points           =          43132
    Total Blocks           =            397
    Max Points             =            254
    Max Functions          =             73
    Weights Tolerance      =       1.00E-15

   => Loading Basis Set <=

    Name: (DEF2-TZVPPD AUX)
    Role: JKFIT
    Keyword: DF_BASIS_SCF
    atoms 1 entry AG         line  4364 file /mnt/storage/home/zw18965/.conda/envs/p4env/share/psi4/basis/def2-universal-jkfit.gbs 
    atoms 2 entry H          line    18 file /mnt/storage/home/zw18965/.conda/envs/p4env/share/psi4/basis/def2-universal-jkfit.gbs 

   => Loading Basis Set <=

    Name: DEF2-TZVPPD
    Role: ORBITAL
    Keyword: BASIS
    atoms 1 entry AG         line  2174 (ECP: line  3646) file /mnt/storage/home/zw18965/.conda/envs/p4env/share/psi4/basis/def2-tzvppd.gbs 
    atoms 2 entry H          line    14 file /mnt/storage/home/zw18965/.conda/envs/p4env/share/psi4/basis/def2-tzvppd.gbs 

    !!!  WARNING: ECP capability is in beta. Please check occupations closely.  !!!

  Reading orbitals from file /tmp/Ag01N0_H.default.27912.180.npy, no projection.

  ==> Integral Setup <==

  DFHelper Memory: AOs need 0.014 GiB; user supplied 100.378 GiB. Using in-core AOs.

  ==> MemDFJK: Density-Fitted J/K Matrices <==

    J tasked:                   Yes
    K tasked:                    No
    wK tasked:                   No
    OpenMP threads:              28
    Memory [MiB]:            102787
    Algorithm:                 Core
    Schwarz Cutoff:           1E-12
    Mask sparsity (%):       0.0000
    Fitting Condition:        1E-10

   => Auxiliary Basis Set <=

  Basis Set: (DEF2-TZVPPD AUX)
    Blend: DEF2-UNIVERSAL-JKFIT
    Number of shells: 55
    Number of basis functions: 273
    Number of Cartesian functions: 404
    Spherical Harmonics?: true
    Max angular momentum: 6

  Cached 100.0% of DFT collocation blocks in 0.205 [GiB].

  Minimum eigenvalue in the overlap matrix is 3.2416196043E-03.
  Reciprocal condition number of the overlap matrix is 7.7437316776E-04.
    Using symmetric orthogonalization.

  ==> Pre-Iterations <==

  SCF Guess: Orbitals guess was supplied from a previous computation.

   -------------------------------------------------------
    Irrep   Nso     Nmo     Nalpha   Nbeta   Ndocc  Nsocc
   -------------------------------------------------------
     A1        31      31       5       5       5       0
     A2         8       8       1       1       1       0
     B1        17      17       2       2       2       0
     B2        17      17       2       2       2       0
   -------------------------------------------------------
    Total      73      73      10      10      10       0
   -------------------------------------------------------

  ==> Iterations <==

                           Total Energy        Delta E     RMS |[F,P]|

   @DF-RKS iter   0:  -147.58945624115046   -1.47589e+02   1.54903e-04 
   @DF-RKS iter   1:  -147.58858081516792    8.75426e-04   4.77976e-05 DIIS
   @DF-RKS iter   2:  -147.58857820597328    2.60919e-06   8.03622e-05 DIIS
   @DF-RKS iter   3:  -147.58858268137789   -4.47540e-06   3.75504e-06 DIIS
   @DF-RKS iter   4:  -147.58858268908483   -7.70694e-09   2.26743e-06 DIIS
   @DF-RKS iter   5:  -147.58858269144866   -2.36383e-09   4.35167e-07 DIIS
   @DF-RKS iter   6:  -147.58858269161783   -1.69166e-10   1.65938e-07 DIIS
   @DF-RKS iter   7:  -147.58858269164097   -2.31353e-11   2.05158e-08 DIIS
   @DF-RKS iter   8:  -147.58858269164131   -3.41061e-13   1.76411e-09 DIIS
  Energy and wave function converged.


  ==> Post-Iterations <==

   Electrons on quadrature grid:
      Ntotal   =   19.9999991233 ; deviation = -8.767e-07 

    Orbital Energies [Eh]
    ---------------------

    Doubly Occupied:                                                      

       1A1    -3.707273     2A1    -2.301840     1B2    -2.290293  
       1B1    -2.290293     3A1    -0.356373     2B1    -0.298534  
       2B2    -0.298534     4A1    -0.287964     1A2    -0.287963  
       5A1    -0.225063  

    Virtual:                                                              

       6A1    -0.097513     3B2    -0.009094     3B1    -0.009094  
       7A1     0.095467     8A1     0.104782     4B2     0.179069  
       4B1     0.179069     9A1     0.188079     5B1     0.234982  
       5B2     0.234982    10A1     0.407760    11A1     0.410966  
       2A2     0.410969    12A1     0.479643     6B1     0.532567  
       6B2     0.532567    13A1     0.596685     7B2     0.875371  
       7B1     0.875371    14A1     1.094770     3A2     1.564811  
      15A1     1.564824     8B1     1.577980     8B2     1.577980  
       9B1     1.597758     9B2     1.597758    10B1     1.652169  
      10B2     1.652169    16A1     1.662059    17A1     1.854990  
       4A2     2.028663    18A1     2.028665    19A1     2.043291  
      11B2     2.095110    11B1     2.095110    20A1     2.239340  
      21A1     2.695027    22A1     3.313929     5A2     3.314043  
      12B2     3.528490    12B1     3.528490    13B2     3.965004  
      13B1     3.965004    23A1     3.991882    24A1     4.651416  
      14B2     4.861615    14B1     4.861615    25A1     4.874827  
       6A2     4.874852    15B1     5.059373    15B2     5.059373  
      26A1     5.263394    16B2     5.620081    16B1     5.620081  
      27A1     5.622031     7A2     5.622040     8A2     5.626019  
      28A1     5.626019    17B2     5.768545    17B1     5.768545  
      29A1     6.261121    30A1    33.654864    31A1   110.908661  

    Final Occupation by Irrep:
             A1    A2    B1    B2 
    DOCC [     5,    1,    2,    2 ]

  @DF-RKS Final Energy:  -147.58858269164131

   => Energetics <=

    Nuclear Repulsion Energy =              6.2667150838471475
    One-Electron Energy =                -273.9664686781511591
    Two-Electron Energy =                 134.5960940076786869
    DFT Exchange-Correlation Energy =     -14.4848478050159954
    Empirical Dispersion Energy =          -0.0000753000000000
    VV10 Nonlocal Energy =                  0.0000000000000000
    Total Energy =                       -147.5885826916413066

Computation Completed


Properties will be evaluated at   0.000000,   0.000000,   0.000000 [a0]

Properties computed using the SCF density matrix

  Nuclear Dipole Moment: [e a0]
     X:     0.0000      Y:     0.0000      Z:    -2.4656

  Electronic Dipole Moment: [e a0]
     X:     0.0000      Y:     0.0000      Z:     3.4669

  Dipole Moment: [e a0]
     X:     0.0000      Y:     0.0000      Z:     1.0013     Total:     1.0013

  Dipole Moment: [D]
     X:     0.0000      Y:     0.0000      Z:     2.5450     Total:     2.5450


*** tstop() called on compute236.bc4.acrc.priv at Tue Nov  2 16:21:37 2021
Module time:
	user time   =      35.28 seconds =       0.59 minutes
	system time =       1.13 seconds =       0.02 minutes
	total time  =          3 seconds =       0.05 minutes
Total time:
	user time   =     892.54 seconds =      14.88 minutes
	system time =      23.89 seconds =       0.40 minutes
	total time  =        142 seconds =       2.37 minutes

*** tstart() called on compute236.bc4.acrc.priv
*** at Tue Nov  2 16:21:37 2021


         ------------------------------------------------------------
                                   SCF GRAD                          
                          Rob Parrish, Justin Turney,                
                       Andy Simmonett, and Alex Sokolov              
         ------------------------------------------------------------

  ==> Geometry <==

    Molecular point group: c2v
    Full point group: C_inf_v

    Geometry (in Angstrom), charge = 0, multiplicity = 1:

       Center              X                  Y                   Z               Mass       
    ------------   -----------------  -----------------  -----------------  -----------------
         AG           0.000000000000     0.000000000000     0.014983956177   106.905091600000
         H            0.000000000000     0.000000000000    -1.589423914326     1.007825032230

  Nuclear repulsion =    6.266715083847147

  ==> Basis Set <==

  Basis Set: DEF2-TZVPPD
    Blend: DEF2-TZVPPD
    Number of shells: 23
    Number of basis functions: 73
    Number of Cartesian functions: 89
    Spherical Harmonics?: true
    Max angular momentum: 4

  Core potential: DEF2-TZVPPD
    Number of shells: 4
    Number of ECP primitives: 14
    Number of ECP core electrons: 28
    Max angular momentum: 3

  ==> DFJKGrad: Density-Fitted SCF Gradients <==

    Gradient:                    1
    J tasked:                  Yes
    K tasked:                   No
    wK tasked:                  No
    OpenMP threads:             28
    Integrals threads:          28
    Memory [MiB]:           102996
    Schwarz Cutoff:          1E-12
    Fitting Condition:       1E-10

   => Auxiliary Basis Set <=

  Basis Set: (DEF2-TZVPPD AUX)
    Blend: DEF2-UNIVERSAL-JKFIT
    Number of shells: 55
    Number of basis functions: 273
    Number of Cartesian functions: 404
    Spherical Harmonics?: true
    Max angular momentum: 6

  ==> DFT Potential <==

   => Composite Functional: SCAN-D3BJ <= 

    SCAN Meta-GGA XC Functional
(10.1103/PhysRevLett.115.036402)
    J. Sun, A. Ruzsinszky, J. P. Perdew  Phys. Rev. Lett. 115, 036402, 2015


    Deriv               =              1
    GGA                 =           TRUE
    Meta                =           TRUE

    Exchange Hybrid     =          FALSE
    MP2 Hybrid          =          FALSE

   => Exchange Functionals <=

    1.0000   XC_MGGA_X_SCAN

   => Correlation Functionals <=

    1.0000   XC_MGGA_C_SCAN

   => LibXC Density Thresholds  <==

    XC_MGGA_C_SCAN:  1.00E-15 
    XC_MGGA_X_SCAN:  1.00E-15 

   => Molecular Quadrature <=

    Radial Scheme          =       TREUTLER
    Pruning Scheme         =           NONE
    Nuclear Scheme         =       TREUTLER

    BS radius alpha        =              1
    Pruning alpha          =              1
    Radial Points          =             75
    Spherical Points       =            302
    Total Points           =          43132
    Total Blocks           =            397
    Max Points             =            254
    Max Functions          =             73
    Weights Tolerance      =       1.00E-15


  -Total Gradient:
     Atom            X                  Y                   Z
    ------   -----------------  -----------------  -----------------
       1        0.000000000000     0.000000000000    -0.092341909929
       2        0.000000000000     0.000000000000     0.079406767965


*** tstop() called on compute236.bc4.acrc.priv at Tue Nov  2 16:21:42 2021
Module time:
	user time   =      32.54 seconds =       0.54 minutes
	system time =       1.43 seconds =       0.02 minutes
	total time  =          5 seconds =       0.08 minutes
Total time:
	user time   =     927.98 seconds =      15.47 minutes
	system time =      25.48 seconds =       0.42 minutes
	total time  =        147 seconds =       2.45 minutes


  ==> Adding ECP gradient terms (computed numerically) <==

  -ECP Gradient:
     Atom            X                  Y                   Z
    ------   -----------------  -----------------  -----------------
       1       -0.000000000000     0.000000000000     0.085860064495
       2       -0.000000000000     0.000000000000    -0.085860064495


  -Total Gradient:
     Atom            X                  Y                   Z
    ------   -----------------  -----------------  -----------------
       1       -0.000000000000     0.000000000000    -0.006481845434
       2       -0.000000000000     0.000000000000    -0.006453296530


			-----------------------------------------
			 OPTKING 2.0: for geometry optimizations 
			  - R.A. King,  Bethel University        
			-----------------------------------------
	At level 1: Red. Int., RFO, no backsteps, dynamic trust

	Previous internal coordinate definitions found.
	---Fragment 1 Geometry and Gradient---
	 AG          0.0000000000        0.0000000000        0.0283155735
	 H           0.0000000000        0.0000000000       -3.0035758953
	            -0.0000000000        0.0000000000       -0.0064818454
	            -0.0000000000        0.0000000000       -0.0064532965

	---Fragment 1 Intrafragment Coordinates---
	 - Coordinate -           - BOHR/RAD -       - ANG/DEG -
	 R(1,2)           =         3.031891	       1.604408

	Current energy   :      -147.5885826916

	Energy change for the previous step:
		Projected    :         0.0000310544
		Actual       :        -0.0000629696

	Performing BFGS update.
	Previous computed or guess Hessian on step 1.
	Steps to be used in Hessian update: 3 2
	Taking RFO optimization step.
	Going to follow RFO solution 1.
	Using RFO vector 1.
	Norm of target step-size    0.00012
	Projected energy change by RFO approximation:         0.0000000057

	Back-transformation to cartesian coordinates...
	Successfully converged to displaced geometry.

	--- Internal Coordinate Step in ANG or DEG, aJ/ANG or AJ/DEG ---
	 ---------------------------------------------------------------------------
	   Coordinate                Previous        Force       Change         New 
	   ----------                --------       ------       ------       ------
	    1 R(1,2)          =      1.604408     0.000118     0.000065     1.604472
	 ---------------------------------------------------------------------------
	Successfully symmetrized geometry.

  ==> Convergence Check <==

  Measures of convergence in internal coordinates in au.
  Criteria marked as inactive (o), active & met (*), and active & unmet ( ).
  ---------------------------------------------------------------------------------------------
   Step     Total Energy     Delta E     MAX Force     RMS Force      MAX Disp      RMS Disp   
  ---------------------------------------------------------------------------------------------
    Convergence Criteria    1.00e-06 *    3.00e-04 *             o    1.20e-03 *             o
  ---------------------------------------------------------------------------------------------
      4    -147.58858269   -6.30e-05      1.43e-05 *    1.43e-05 o    1.22e-04 *    1.22e-04 o  ~
  ---------------------------------------------------------------------------------------------


  **** Optimization is complete! (in 4 steps) ****

  ==> Optimization Summary <==

  Measures of convergence in internal coordinates in au.
  --------------------------------------------------------------------------------------------------------------- ~
   Step         Total Energy             Delta E       MAX Force       RMS Force        MAX Disp        RMS Disp  ~
  --------------------------------------------------------------------------------------------------------------- ~
      1    -147.588504010110   -147.588504010110      0.00127669      0.00127669      0.00068228      0.00068228  ~
      2    -147.588509273803     -0.000005263694      0.00119797      0.00119797      0.00137509      0.00137509  ~
      3    -147.588519722017     -0.000010448214      0.00103891      0.00103891      0.00898832      0.00898832  ~
      4    -147.588582691641     -0.000062969624      0.00001427      0.00001427      0.00012203      0.00012203  ~
  --------------------------------------------------------------------------------------------------------------- ~

	Writing optimization data to binary file.
	Final energy is   -147.5885826916413
	Final (previous) structure:
	Cartesian Geometry (in Angstrom)
	   AG     0.0000000000   0.0000000000   0.0149839561
	    H     0.0000000000   0.0000000000  -1.5894239081
	Saving final (previous) structure.
	Cleaning optimization helper files.
			--------------------------
			 OPTKING Finished Execution 
			--------------------------

    Final optimized geometry and variables:
    Molecular point group: c2v
    Full point group: C_inf_v

    Geometry (in Angstrom), charge = 0, multiplicity = 1:

    AG           0.000000000000     0.000000000000     0.014983956177
    H            0.000000000000     0.000000000000    -1.589423914326

	Removing binary optimization data file.
	Cleaning optimization helper files.

Scratch directory: /tmp/
gradient() will perform analytic gradient computation.

*** tstart() called on compute236.bc4.acrc.priv
*** at Tue Nov  2 16:22:19 2021

   => Loading Basis Set <=

    Name: DEF2-TZVPPD
    Role: ORBITAL
    Keyword: BASIS
    atoms 1 entry AG         line  2174 (ECP: line  3646) file /mnt/storage/home/zw18965/.conda/envs/p4env/share/psi4/basis/def2-tzvppd.gbs 
    atoms 2 entry H          line    14 file /mnt/storage/home/zw18965/.conda/envs/p4env/share/psi4/basis/def2-tzvppd.gbs 

    !!!  WARNING: ECP capability is in beta. Please check occupations closely.  !!!

   => SCAN-D3(BJ): Empirical Dispersion <=

    Grimme's -D3 (BJ-damping) Dispersion Correction
    Grimme S.; Ehrlich S.; Goerigk L. (2011), J. Comput. Chem., 32: 1456
    Parametrisation from:    J.G. Brandenburg, J. E. Bates, J. Sun, J.P. Perdew, Phys. Rev. B 94, 115144, 2016

        s6 =       1.000000
        s8 =       0.000000
        a1 =       0.538000
        a2 =       5.420000


         ---------------------------------------------------------
                                   SCF
               by Justin Turney, Rob Parrish, Andy Simmonett
                          and Daniel G. A. Smith
                              RKS Reference
                       28 Threads, 137329 MiB Core
         ---------------------------------------------------------

  ==> Geometry <==

    Molecular point group: c2v
    Full point group: C_inf_v

    Geometry (in Angstrom), charge = 0, multiplicity = 1:

       Center              X                  Y                   Z               Mass       
    ------------   -----------------  -----------------  -----------------  -----------------
         AG           0.000000000000     0.000000000000     0.014983956177   106.905091600000
         H            0.000000000000     0.000000000000    -1.589423914326     1.007825032230

  Running in c2v symmetry.

  Rotational constants: A = ************  B =      6.55929  C =      6.55929 [cm^-1]
  Rotational constants: A = ************  B = 196642.56539  C = 196642.56539 [MHz]
  Nuclear repulsion =    6.266715083847147

  Charge       = 0
  Multiplicity = 1
  Electrons    = 20
  Nalpha       = 10
  Nbeta        = 10

  ==> Algorithm <==

[...]

  Running in c2v symmetry.

  Rotational constants: A = ************  B =      6.53769  C =      6.53769 [cm^-1]
  Rotational constants: A = ************  B = 195995.07297  C = 195995.07297 [MHz]
  Nuclear repulsion =    6.256389251620861

  Charge       = 0
  Multiplicity = 1
  Electrons    = 20
  Nalpha       = 10
  Nbeta        = 10

  ==> Algorithm <==

  SCF Algorithm Type is DF.
  DIIS enabled.
  MOM disabled.
  Fractional occupation disabled.
  Guess Type is SAD.
  Energy threshold   = 1.00e-08
  Density threshold  = 1.00e-08
  Integral threshold = 1.00e-12

  ==> Primary Basis <==

  Basis Set: DEF2-TZVPPD
    Blend: DEF2-TZVPPD
    Number of shells: 23
    Number of basis functions: 73
    Number of Cartesian functions: 89
    Spherical Harmonics?: true
    Max angular momentum: 4

  Core potential: DEF2-TZVPPD
    Number of shells: 4
    Number of ECP primitives: 14
    Number of ECP core electrons: 28
    Max angular momentum: 3

  ==> DFT Potential <==

   => Composite Functional: SCAN-D3BJ <= 

    SCAN Meta-GGA XC Functional
(10.1103/PhysRevLett.115.036402)
    J. Sun, A. Ruzsinszky, J. P. Perdew  Phys. Rev. Lett. 115, 036402, 2015


    Deriv               =              1
    GGA                 =           TRUE
    Meta                =           TRUE

    Exchange Hybrid     =          FALSE
    MP2 Hybrid          =          FALSE

   => Exchange Functionals <=

    1.0000   XC_MGGA_X_SCAN

   => Correlation Functionals <=

    1.0000   XC_MGGA_C_SCAN

   => LibXC Density Thresholds  <==

    XC_MGGA_C_SCAN:  1.00E-15 
    XC_MGGA_X_SCAN:  1.00E-15 

   => Molecular Quadrature <=

    Radial Scheme          =       TREUTLER
    Pruning Scheme         =           NONE
    Nuclear Scheme         =       TREUTLER

    BS radius alpha        =              1
    Pruning alpha          =              1
    Radial Points          =             75
    Spherical Points       =            302
    Total Points           =          43133
    Total Blocks           =            397
    Max Points             =            254
    Max Functions          =             73
    Weights Tolerance      =       1.00E-15

   => Loading Basis Set <=

    Name: (DEF2-TZVPPD AUX)
    Role: JKFIT
    Keyword: DF_BASIS_SCF
    atoms 1 entry AG         line  4364 file /mnt/storage/home/zw18965/.conda/envs/p4env/share/psi4/basis/def2-universal-jkfit.gbs 
    atoms 2 entry H          line    18 file /mnt/storage/home/zw18965/.conda/envs/p4env/share/psi4/basis/def2-universal-jkfit.gbs 

  ==> Integral Setup <==

  DFHelper Memory: AOs need 0.014 GiB; user supplied 100.378 GiB. Using in-core AOs.

  ==> MemDFJK: Density-Fitted J/K Matrices <==

    J tasked:                   Yes
    K tasked:                    No
    wK tasked:                   No
    OpenMP threads:              28
    Memory [MiB]:            102787
    Algorithm:                 Core
    Schwarz Cutoff:           1E-12
    Mask sparsity (%):       0.0000
    Fitting Condition:        1E-10

   => Auxiliary Basis Set <=

  Basis Set: (DEF2-TZVPPD AUX)
    Blend: DEF2-UNIVERSAL-JKFIT
    Number of shells: 55
    Number of basis functions: 273
    Number of Cartesian functions: 404
    Spherical Harmonics?: true
    Max angular momentum: 6

  Cached 100.0% of DFT collocation blocks in 0.205 [GiB].

  Minimum eigenvalue in the overlap matrix is 3.2752633953E-03.
  Reciprocal condition number of the overlap matrix is 7.8276013965E-04.
    Using symmetric orthogonalization.

  ==> Pre-Iterations <==

  SCF Guess: Superposition of Atomic Densities via on-the-fly atomic UHF (no occupation information).

   -------------------------
    Irrep   Nso     Nmo    
   -------------------------
     A1        31      31 
     A2         8       8 
     B1        17      17 
     B2        17      17 
   -------------------------
    Total      73      73
   -------------------------

  ==> Iterations <==

                           Total Energy        Delta E     RMS |[F,P]|

   @DF-RKS iter SAD:  -147.29933288620779   -1.47299e+02   0.00000e+00 
   @DF-RKS iter   1:  -147.53174787681317   -2.32415e-01   7.53117e-03 DIIS
   @DF-RKS iter   2:  -147.33080766400820    2.00940e-01   1.64075e-02 DIIS
   @DF-RKS iter   3:  -147.58778076507463   -2.56973e-01   1.11086e-03 DIIS
   @DF-RKS iter   4:  -147.58790041870819   -1.19654e-04   9.40955e-04 DIIS
   @DF-RKS iter   5:  -147.58845494691229   -5.54528e-04   3.15706e-04 DIIS
   @DF-RKS iter   6:  -147.58854736515786   -9.24182e-05   4.88576e-05 DIIS
   @DF-RKS iter   7:  -147.58854876413824   -1.39898e-06   4.12286e-06 DIIS
   @DF-RKS iter   8:  -147.58854877261768   -8.47945e-09   1.57223e-06 DIIS
   @DF-RKS iter   9:  -147.58854877495477   -2.33709e-09   1.28312e-07 DIIS
   @DF-RKS iter  10:  -147.58854877496955   -1.47793e-11   9.71108e-09 DIIS
  Energy and wave function converged.


  ==> Post-Iterations <==

   Electrons on quadrature grid:
      Ntotal   =   19.9999991078 ; deviation = -8.922e-07 

    Orbital Energies [Eh]
    ---------------------

    Doubly Occupied:                                                      

       1A1    -3.707151     2A1    -2.301667     1B1    -2.290203  
       1B2    -2.290203     3A1    -0.355900     2B1    -0.298403  
       2B2    -0.298403     4A1    -0.287909     1A2    -0.287909  
       5A1    -0.225070  

    Virtual:                                                              

       6A1    -0.097643     3B1    -0.009088     3B2    -0.009088  
       7A1     0.095341     8A1     0.104744     4B1     0.179057  
       4B2     0.179057     9A1     0.187888     5B1     0.234823  
       5B2     0.234823    10A1     0.407285    11A1     0.410946  
       2A2     0.410949    12A1     0.479711     6B1     0.532337  
       6B2     0.532337    13A1     0.596367     7B1     0.875476  
       7B2     0.875476    14A1     1.093970     3A2     1.564951  
      15A1     1.564964     8B1     1.577991     8B2     1.577991  
       9B1     1.597603     9B2     1.597603    10B1     1.651636  
      10B2     1.651636    16A1     1.662040    17A1     1.853910  
       4A2     2.028661    18A1     2.028664    19A1     2.044314  
      11B1     2.094809    11B2     2.094809    20A1     2.236687  
      21A1     2.694918    22A1     3.313995     5A2     3.314112  
      12B1     3.526544    12B2     3.526544    13B1     3.964591  
      13B2     3.964591    23A1     3.989570    24A1     4.646427  
      14B1     4.861687    14B2     4.861687    25A1     4.874665  
       6A2     4.874690    15B1     5.058679    15B2     5.058679  
      26A1     5.263896    16B2     5.620162    16B1     5.620162  
      27A1     5.621962     7A2     5.621972     8A2     5.626066  
      28A1     5.626066    17B1     5.765895    17B2     5.765895  
      29A1     6.255165    30A1    33.651906    31A1   110.907874  

    Final Occupation by Irrep:
             A1    A2    B1    B2 
    DOCC [     5,    1,    2,    2 ]

  @DF-RKS Final Energy:  -147.58854877496955

   => Energetics <=

    Nuclear Repulsion Energy =              6.2563892516208606
    One-Electron Energy =                -273.9484886570637059
    Two-Electron Energy =                 134.5882107815706377
    DFT Exchange-Correlation Energy =     -14.4845848410973606
    Empirical Dispersion Energy =          -0.0000753100000000
    VV10 Nonlocal Energy =                  0.0000000000000000
    Total Energy =                       -147.5885487749695528

Computation Completed


Properties will be evaluated at   0.000000,   0.000000,   0.000000 [a0]

Properties computed using the SCF density matrix

  Nuclear Dipole Moment: [e a0]
     X:     0.0000      Y:     0.0000      Z:    -2.4696

  Electronic Dipole Moment: [e a0]
     X:     0.0000      Y:     0.0000      Z:     3.4722

  Dipole Moment: [e a0]
     X:     0.0000      Y:     0.0000      Z:     1.0025     Total:     1.0025

  Dipole Moment: [D]
     X:     0.0000      Y:     0.0000      Z:     2.5482     Total:     2.5482


*** tstop() called on compute236.bc4.acrc.priv at Tue Nov  2 16:24:44 2021
Module time:
	user time   =      47.25 seconds =       0.79 minutes
	system time =       1.36 seconds =       0.02 minutes
	total time  =          4 seconds =       0.07 minutes
Total time:
	user time   =    2066.67 seconds =      34.44 minutes
	system time =      52.46 seconds =       0.87 minutes
	total time  =        329 seconds =       5.48 minutes

*** tstart() called on compute236.bc4.acrc.priv
*** at Tue Nov  2 16:24:44 2021


         ------------------------------------------------------------
                                   SCF GRAD                          
                          Rob Parrish, Justin Turney,                
                       Andy Simmonett, and Alex Sokolov              
         ------------------------------------------------------------

  ==> Geometry <==

    Molecular point group: c2v
    Full point group: C_inf_v

    Geometry (in Angstrom), charge = 0, multiplicity = 1:

       Center              X                  Y                   Z               Mass       
    ------------   -----------------  -----------------  -----------------  -----------------
         AG           0.000000000000     0.000000000000     0.015008686387   106.905091600000
         H            0.000000000000     0.000000000000    -1.592047172569     1.007825032230

  Nuclear repulsion =    6.256389251620861

  ==> Basis Set <==

  Basis Set: DEF2-TZVPPD
    Blend: DEF2-TZVPPD
    Number of shells: 23
    Number of basis functions: 73
    Number of Cartesian functions: 89
    Spherical Harmonics?: true
    Max angular momentum: 4

  Core potential: DEF2-TZVPPD
    Number of shells: 4
    Number of ECP primitives: 14
    Number of ECP core electrons: 28
    Max angular momentum: 3

  ==> DFJKGrad: Density-Fitted SCF Gradients <==

    Gradient:                    1
    J tasked:                  Yes
    K tasked:                   No
    wK tasked:                  No
    OpenMP threads:             28
    Integrals threads:          28
    Memory [MiB]:           102996
    Schwarz Cutoff:          1E-12
    Fitting Condition:       1E-10

   => Auxiliary Basis Set <=

  Basis Set: (DEF2-TZVPPD AUX)
    Blend: DEF2-UNIVERSAL-JKFIT
    Number of shells: 55
    Number of basis functions: 273
    Number of Cartesian functions: 404
    Spherical Harmonics?: true
    Max angular momentum: 6

  ==> DFT Potential <==

   => Composite Functional: SCAN-D3BJ <= 

    SCAN Meta-GGA XC Functional
(10.1103/PhysRevLett.115.036402)
    J. Sun, A. Ruzsinszky, J. P. Perdew  Phys. Rev. Lett. 115, 036402, 2015


    Deriv               =              1
    GGA                 =           TRUE
    Meta                =           TRUE

    Exchange Hybrid     =          FALSE
    MP2 Hybrid          =          FALSE

   => Exchange Functionals <=

    1.0000   XC_MGGA_X_SCAN

   => Correlation Functionals <=

    1.0000   XC_MGGA_C_SCAN

   => LibXC Density Thresholds  <==

    XC_MGGA_C_SCAN:  1.00E-15 
    XC_MGGA_X_SCAN:  1.00E-15 

   => Molecular Quadrature <=

    Radial Scheme          =       TREUTLER
    Pruning Scheme         =           NONE
    Nuclear Scheme         =       TREUTLER

    BS radius alpha        =              1
    Pruning alpha          =              1
    Radial Points          =             75
    Spherical Points       =            302
    Total Points           =          43133
    Total Blocks           =            397
    Max Points             =            254
    Max Functions          =             73
    Weights Tolerance      =       1.00E-15


  -Total Gradient:
     Atom            X                  Y                   Z
    ------   -----------------  -----------------  -----------------
       1       -0.000000000000     0.000000000000    -0.091224699948
       2       -0.000000000000     0.000000000000     0.078322015569


*** tstop() called on compute236.bc4.acrc.priv at Tue Nov  2 16:24:49 2021
Module time:
	user time   =      32.41 seconds =       0.54 minutes
	system time =       1.34 seconds =       0.02 minutes
	total time  =          5 seconds =       0.08 minutes
Total time:
	user time   =    2102.11 seconds =      35.04 minutes
	system time =      53.93 seconds =       0.90 minutes
	total time  =        334 seconds =       5.57 minutes


  ==> Adding ECP gradient terms (computed numerically) <==

  -ECP Gradient:
     Atom            X                  Y                   Z
    ------   -----------------  -----------------  -----------------
       1        0.000000000000    -0.000000000000     0.085348297576
       2        0.000000000000    -0.000000000000    -0.085348297570


  -Total Gradient:
     Atom            X                  Y                   Z
    ------   -----------------  -----------------  -----------------
       1        0.000000000000    -0.000000000000    -0.005876402372
       2        0.000000000000    -0.000000000000    -0.007026282001


         ----------------------------------------------------------
                                   FINDIF
                     R. A. King and Jonathon Misiewicz
         ---------------------------------------------------------

  Computing second-derivative from gradients using projected, 
  symmetry-adapted, cartesian coordinates.

  3 gradients passed in, including the reference geometry.
  Generating complete list of displacements from unique ones.


-------------------------------------------------------------


  ==> Harmonic Vibrational Analysis <==

  non-mass-weighted Hessian:       Symmetric? True   Hermitian? True   Lin Dep Dim?  5 (0)
  projection of translations (True) and rotations (True) removed 5 degrees of freedom (5)
  total projector:                 Symmetric? True   Hermitian? True   Lin Dep Dim?  5 (5)
  mass-weighted Hessian:           Symmetric? True   Hermitian? True   Lin Dep Dim?  5 (0)
  pre-proj  low-frequency mode:    0.0000i [cm^-1]
  pre-proj  low-frequency mode:    0.0000  [cm^-1]
  pre-proj  low-frequency mode:    0.0000  [cm^-1]
  pre-proj  low-frequency mode:    0.0000  [cm^-1]
  pre-proj  low-frequency mode:    0.0000  [cm^-1]
  pre-proj  all modes:['0.0000i' '0.0000' '0.0000' '0.0000' '0.0000' '1746.5090']
  projected mass-weighted Hessian: Symmetric? True   Hermitian? True   Lin Dep Dim?  5 (5)
  post-proj low-frequency mode:    0.0000  [cm^-1] (TR)
  post-proj low-frequency mode:    0.0000  [cm^-1] (TR)
  post-proj low-frequency mode:    0.0000  [cm^-1] (TR)
  post-proj low-frequency mode:    0.0000  [cm^-1] (TR)
  post-proj low-frequency mode:    0.0000  [cm^-1] (TR)
  post-proj  all modes:['0.0000' '0.0000' '0.0000' '0.0000' '0.0000' '1746.5090']

  Vibration                       6           
  Freq [cm^-1]                1746.5090       
  Irrep                           A1          
  Reduced mass [u]              1.0172        
  Force const [mDyne/A]         1.8282        
  Turning point v=0 [a0]        0.2603        
  RMS dev v=0 [a0 u^1/2]        0.1857        
  Char temp [K]               2512.8376       
  ----------------------------------------------------------------------------------
      1   AG               0.00  0.00 -0.01   
      2   H                0.00  0.00  1.00   

  ==> Thermochemistry Components <==

  Entropy, S
    Electronic S            0.000 [cal/(mol K)]        0.000 [J/(mol K)]       0.00000000 [mEh/K] (multiplicity = 1)
    Translational S        39.945 [cal/(mol K)]      167.130 [J/(mol K)]       0.06365640 [mEh/K] (mol. weight = 107.9129 [u], P = 101325.00 [Pa])
    Rotational S            8.849 [cal/(mol K)]       37.024 [J/(mol K)]       0.01410156 [mEh/K] (symmetry no. = 1)
    Vibrational S           0.004 [cal/(mol K)]        0.017 [J/(mol K)]       0.00000653 [mEh/K]
  Total S                  48.798 [cal/(mol K)]      204.171 [J/(mol K)]       0.07776448 [mEh/K]
  Correction S              0.000 [cal/(mol K)]        0.000 [J/(mol K)]       0.00000000 [mEh/K]

  Constant volume heat capacity, Cv
    Electronic Cv           0.000 [cal/(mol K)]        0.000 [J/(mol K)]       0.00000000 [mEh/K]
    Translational Cv        2.981 [cal/(mol K)]       12.472 [J/(mol K)]       0.00475022 [mEh/K]
    Rotational Cv           1.987 [cal/(mol K)]        8.314 [J/(mol K)]       0.00316681 [mEh/K]
    Vibrational Cv          0.031 [cal/(mol K)]        0.129 [J/(mol K)]       0.00004920 [mEh/K]
  Total Cv                  4.999 [cal/(mol K)]       20.915 [J/(mol K)]       0.00796623 [mEh/K]
  Correction Cv             0.000 [cal/(mol K)]        0.000 [J/(mol K)]       0.00000000 [mEh/K]

  Constant pressure heat capacity, Cp
    Electronic Cp           0.000 [cal/(mol K)]        0.000 [J/(mol K)]       0.00000000 [mEh/K]
    Translational Cp        4.968 [cal/(mol K)]       20.786 [J/(mol K)]       0.00791703 [mEh/K]
    Rotational Cp           1.987 [cal/(mol K)]        8.314 [J/(mol K)]       0.00316681 [mEh/K]
    Vibrational Cp          0.031 [cal/(mol K)]        0.129 [J/(mol K)]       0.00004920 [mEh/K]
  Total Cp                  6.986 [cal/(mol K)]       29.230 [J/(mol K)]       0.01113304 [mEh/K]
  Correction Cp             0.000 [cal/(mol K)]        0.000 [J/(mol K)]       0.00000000 [mEh/K]

  ==> Thermochemistry Energy Analysis <==

  Raw electronic energy, E0
  Total E0, Electronic energy at well bottom at 0 [K]                 -147.58858269 [Eh]

  Zero-point energy, ZPE_vib = Sum_i nu_i / 2
    Electronic ZPE          0.000 [kcal/mol]        0.000 [kJ/mol]       0.00000000 [Eh]
    Translational ZPE       0.000 [kcal/mol]        0.000 [kJ/mol]       0.00000000 [Eh]
    Rotational ZPE          0.000 [kcal/mol]        0.000 [kJ/mol]       0.00000000 [Eh]
    Vibrational ZPE         2.497 [kcal/mol]       10.446 [kJ/mol]       0.00397884 [Eh]         873.255 [cm^-1]
  Correction ZPE            2.497 [kcal/mol]       10.446 [kJ/mol]       0.00397884 [Eh]         873.255 [cm^-1]
  Total ZPE, Electronic energy at 0 [K]                               -147.58460385 [Eh]

  Thermal Energy, E (includes ZPE)
    Electronic E            0.000 [kcal/mol]        0.000 [kJ/mol]       0.00000000 [Eh]
    Translational E         0.889 [kcal/mol]        3.718 [kJ/mol]       0.00141628 [Eh]
    Rotational E            0.592 [kcal/mol]        2.479 [kJ/mol]       0.00094418 [Eh]
    Vibrational E           2.498 [kcal/mol]       10.451 [kJ/mol]       0.00398058 [Eh]
  Correction E              3.979 [kcal/mol]       16.648 [kJ/mol]       0.00634104 [Eh]
  Total E, Electronic energy at  298.15 [K]                           -147.58224165 [Eh]

  Enthalpy, H_trans = E_trans + k_B * T
    Electronic H            0.000 [kcal/mol]        0.000 [kJ/mol]       0.00000000 [Eh]
    Translational H         1.481 [kcal/mol]        6.197 [kJ/mol]       0.00236046 [Eh]
    Rotational H            0.592 [kcal/mol]        2.479 [kJ/mol]       0.00094418 [Eh]
    Vibrational H           2.498 [kcal/mol]       10.451 [kJ/mol]       0.00398058 [Eh]
  Correction H              4.572 [kcal/mol]       19.127 [kJ/mol]       0.00728523 [Eh]
  Total H, Enthalpy at  298.15 [K]                                    -147.58129747 [Eh]

  Gibbs free energy, G = H - T * S
    Electronic G            0.000 [kcal/mol]        0.000 [kJ/mol]       0.00000000 [Eh]
    Translational G       -10.428 [kcal/mol]      -43.632 [kJ/mol]      -0.01661869 [Eh]
    Rotational G           -2.046 [kcal/mol]       -8.560 [kJ/mol]      -0.00326019 [Eh]
    Vibrational G           2.497 [kcal/mol]       10.446 [kJ/mol]       0.00397863 [Eh]
  Correction G             -9.978 [kcal/mol]      -41.746 [kJ/mol]      -0.01590025 [Eh]
  Total G, Free enthalpy at  298.15 [K]                               -147.60448295 [Eh]

    Psi4 stopped on: Tuesday, 02 November 2021 04:25PM
    Psi4 wall time for execution: 0:06:11.25

*** Psi4 exiting successfully. Buy a developer a beer!
