Optimizer: Optimization complete!
 3 displacements needed.
 1 2 3
Warning: used thermodynamics relations inappropriate for low-frequency modes: ['171.1719']
At level 1: Red. Int., RFO, no backsteps, dynamic trust
At level 1: Red. Int., RFO, no backsteps, dynamic trust
At level 1: Red. Int., RFO, no backsteps, dynamic trust
At level 1: Red. Int., RFO, no backsteps, dynamic trust
,
    A. Alenaizan, A. M. James, S. Lehtola, J. P. Misiewicz, M. Scheurer,
    R. A. Shaw, J. B. Schriber, Y. Xie, Z. L. Glick, D. A. Sirianni,
    J. S. O'Brien, J. M. Waldrop, A. Kumar, E. G. Hohenstein,
    B. P. Pritchard, B. R. Brooks, H. F. Schaefer III, A. Yu. Sokolov,
    K. Patkowski, A. E. DePrince III, U. Bozkaya, R. A. King,
    F. A. Evangelista, J. M. Turney, T. D. Crawford, C. D. Sherrill,
    J. Chem. Phys. 152(18) 184108 (2020). https://doi.org/10.1063/5.0006002

                            Additional Code Authors
    E. T. Seidl, C. L. Janssen, E. F. Valeev, M. L. Leininger,
    J. F. Gonthier, R. M. Richard, H. R. McAlexander, M. Saitow, X. Wang,
    P. Verma, and M. H. Lechner

             Previous Authors, Complete List of Code Contributors,
                       and Citations for Specific Modules
    https://github.com/psi4/psi4/blob/master/codemeta.json
    https://github.com/psi4/psi4/graphs/contributors
    http://psicode.org/psi4manual/master/introduction.html#citing-psifour

    -----------------------------------------------------------------------


    Psi4 started on: Tuesday, 02 November 2021 10:36AM

    Process ID: 30037
    Host:       compute078.bc4.acrc.priv
    PSIDATADIR: /mnt/storage/home/zw18965/.conda/envs/p4env/share/psi4
    Memory:     500.0 MiB
    Threads:    28
    
  ==> Input File <==

--------------------------------------------------------------------------
memory 144 GB

molecule {
0 1
Ag       0.000000    0.000000    1.261821 
Ag       0.000000    0.000000   -1.261821 
 }

set dynamic_level 1
set basis Def2-TZVPPD

optimize("SCAN-D3BJ")
frequencies("SCAN-D3BJ")
--------------------------------------------------------------------------

  Memory set to 134.110 GiB by Python driver.

Scratch directory: /tmp/
gradient() will perform analytic gradient computation.

*** tstart() called on compute078.bc4.acrc.priv
*** at Tue Nov  2 10:36:00 2021

   => Loading Basis Set <=

    Name: DEF2-TZVPPD
    Role: ORBITAL
    Keyword: BASIS
    atoms 1-2 entry AG         line  2174 (ECP: line  3646) file /mnt/storage/home/zw18965/.conda/envs/p4env/share/psi4/basis/def2-tzvppd.gbs 

    !!!  WARNING: ECP capability is in beta. Please check occupations closely.  !!!

   => SCAN-D3(BJ): Empirical Dispersion <=

    Grimme's -D3 (BJ-damping) Dispersion Correction
    Grimme S.; Ehrlich S.; Goerigk L. (2011), J. Comput. Chem., 32: 1456
    Parametrisation from:    J.G. Brandenburg, J. E. Bates, J. Sun, J.P. Perdew, Phys. Rev. B 94, 115144, 2016

        s6 =       1.000000
        s8 =       0.000000
        a1 =       0.538000
        a2 =       5.420000


         ---------------------------------------------------------
                                   SCF
               by Justin Turney, Rob Parrish, Andy Simmonett
                          and Daniel G. A. Smith
                              RKS Reference
                       28 Threads, 137329 MiB Core
         ---------------------------------------------------------

  ==> Geometry <==

    Molecular point group: d2h
    Full point group: D_inf_h

    Geometry (in Angstrom), charge = 0, multiplicity = 1:

       Center              X                  Y                   Z               Mass       
    ------------   -----------------  -----------------  -----------------  -----------------
         AG           0.000000000000     0.000000000000     1.261821000000   106.905091600000
         AG           0.000000000000     0.000000000000    -1.261821000000   106.905091600000

  Running in d2h symmetry.

  Rotational constants: A = ************  B =      0.04952  C =      0.04952 [cm^-1]
  Rotational constants: A = ************  B =   1484.54481  C =   1484.54481 [MHz]
  Nuclear repulsion =   75.697334666275978

  Charge       = 0
  Multiplicity = 1
  Electrons    = 38
  Nalpha       = 19
  Nbeta        = 19

  ==> Algorithm <==

  SCF Algorithm Type is DF.
  DIIS enabled.
  MOM disabled.
  Fractional occupation disabled.
  Guess Type is SAD.
  Energy threshold   = 1.00e-08
  Density threshold  = 1.00e-08
  Integral threshold = 1.00e-12

  ==> Primary Basis <==

  Basis Set: DEF2-TZVPPD
    Blend: DEF2-TZVPPD
    Number of shells: 32
    Number of basis functions: 112
    Number of Cartesian functions: 142
    Spherical Harmonics?: true
    Max angular momentum: 4

  Core potential: DEF2-TZVPPD
    Number of shells: 8
    Number of ECP primitives: 28
    Number of ECP core electrons: 56
    Max angular momentum: 3

  ==> DFT Potential <==

   => Composite Functional: SCAN-D3BJ <= 

    SCAN Meta-GGA XC Functional
(10.1103/PhysRevLett.115.036402)
    J. Sun, A. Ruzsinszky, J. P. Perdew  Phys. Rev. Lett. 115, 036402, 2015


    Deriv               =              1
    GGA                 =           TRUE
    Meta                =           TRUE

    Exchange Hybrid     =          FALSE
    MP2 Hybrid          =          FALSE

   => Exchange Functionals <=

    1.0000   XC_MGGA_X_SCAN

   => Correlation Functionals <=

    1.0000   XC_MGGA_C_SCAN

   => LibXC Density Thresholds  <==

    XC_MGGA_C_SCAN:  1.00E-15 
    XC_MGGA_X_SCAN:  1.00E-15 

   => Molecular Quadrature <=

    Radial Scheme          =       TREUTLER
    Pruning Scheme         =           NONE
    Nuclear Scheme         =       TREUTLER

    BS radius alpha        =              1
    Pruning alpha          =              1
    Radial Points          =             75
    Spherical Points       =            302
    Total Points           =          41812
    Total Blocks           =            410
    Max Points             =            253
    Max Functions          =            110
    Weights Tolerance      =       1.00E-15

   => Loading Basis Set <=

    Name: (DEF2-TZVPPD AUX)
    Role: JKFIT
    Keyword: DF_BASIS_SCF
    atoms 1-2 entry AG         line  4364 file /mnt/storage/home/zw18965/.conda/envs/p4env/share/psi4/basis/def2-universal-jkfit.gbs 

  ==> Integral Setup <==

  DFHelper Memory: AOs need 0.055 GiB; user supplied 100.333 GiB. Using in-core AOs.

  ==> MemDFJK: Density-Fitted J/K Matrices <==

    J tasked:                   Yes
    K tasked:                    No
    wK tasked:                   No
    OpenMP threads:              28
    Memory [MiB]:            102741
    Algorithm:                 Core
    Schwarz Cutoff:           1E-12
    Mask sparsity (%):       0.9885
    Fitting Condition:        1E-10

   => Auxiliary Basis Set <=

  Basis Set: (DEF2-TZVPPD AUX)
    Blend: DEF2-UNIVERSAL-JKFIT
    Number of shells: 98
    Number of basis functions: 510
    Number of Cartesian functions: 768
    Spherical Harmonics?: true
    Max angular momentum: 6

  Cached 100.0% of DFT collocation blocks in 0.250 [GiB].

  Minimum eigenvalue in the overlap matrix is 8.4233099525E-03.
  Reciprocal condition number of the overlap matrix is 2.1570027367E-03.
    Using symmetric orthogonalization.

  ==> Pre-Iterations <==

  SCF Guess: Superposition of Atomic Densities via on-the-fly atomic UHF (no occupation information).

   -------------------------
    Irrep   Nso     Nmo    
   -------------------------
     Ag        23      23 
     B1g        7       7 
     B2g       13      13 
     B3g       13      13 
     Au         7       7 
     B1u       23      23 
     B2u       13      13 
     B3u       13      13 
   -------------------------
    Total     112     112
   -------------------------

  ==> Iterations <==

                           Total Energy        Delta E     RMS |[F,P]|

   @DF-RKS iter SAD:  -293.58246414600723   -2.93582e+02   0.00000e+00 
   @DF-RKS iter   1:  -294.02708190788582   -4.44618e-01   6.39118e-03 DIIS
   @DF-RKS iter   2:  -293.99218620310563    3.48957e-02   1.03702e-02 DIIS
   @DF-RKS iter   3:  -294.05583377636611   -6.36476e-02   8.70059e-04 DIIS
   @DF-RKS iter   4:  -294.05611848571590   -2.84709e-04   4.69708e-04 DIIS
   @DF-RKS iter   5:  -294.05623814803914   -1.19662e-04   2.71602e-05 DIIS
   @DF-RKS iter   6:  -294.05623868515841   -5.37119e-07   5.19765e-06 DIIS
   @DF-RKS iter   7:  -294.05623870365997   -1.85016e-08   5.53208e-07 DIIS
   @DF-RKS iter   8:  -294.05623870385273   -1.92756e-10   4.71071e-08 DIIS
   @DF-RKS iter   9:  -294.05623870385415   -1.42109e-12   3.81570e-09 DIIS
  Energy and wave function converged.


  ==> Post-Iterations <==

   Electrons on quadrature grid:
      Ntotal   =   37.9999732415 ; deviation = -2.676e-05 

    Orbital Energies [Eh]
    ---------------------

    Doubly Occupied:                                                      

       1Ag    -3.680811     1B1u   -3.680168     2Ag    -2.274668  
       2B1u   -2.267976     1B2u   -2.266655     1B3u   -2.266655  
       1B3g   -2.266009     1B2g   -2.266009     3Ag    -0.313759  
       2B2u   -0.293879     2B3u   -0.293879     4Ag    -0.272027  
       1B1g   -0.272007     3B1u   -0.263643     1Au    -0.263624  
       2B3g   -0.252972     2B2g   -0.252972     4B1u   -0.247580  
       5Ag    -0.197613  

    Virtual:                                                              

       5B1u   -0.109073     3B2u   -0.028932     3B3u   -0.028932  
       6Ag    -0.008084     3B2g    0.041397     3B3g    0.041397  
       6B1u    0.092312     7Ag     0.109231     7B1u    0.158826  
       8Ag     0.180012     4B3u    0.185952     4B2u    0.185952  
       4B2g    0.236397     4B3g    0.236397     8B1u    0.367303  
       9Ag     0.374392     2B1g    0.374403     5B2u    0.412467  
       5B3u    0.412467     2Au     0.471209     9B1u    0.471211  
      10Ag     0.578967     5B2g    0.592468     5B3g    0.592468  
      10B1u    0.719104    11Ag     1.383534     6B2u    1.525897  
       6B3u    1.525897     3B1g    1.575648    12Ag     1.575708  
       7B2u    1.592714     7B3u    1.592714     6B3g    1.595114  
       6B2g    1.595114     3Au     1.608083    11B1u    1.608137  
       8B2u    1.609423     8B3u    1.609423     7B3g    1.614768  
       7B2g    1.614768    12B1u    1.629851    13Ag     1.718585  
       8B3g    1.737088     8B2g    1.737088    13B1u    1.759651  
      14Ag     1.941636    15Ag     2.028333     4B1g    2.028364  
       9B2u    2.047904     9B3u    2.047904    14B1u    2.067758  
       4Au     2.067787     9B3g    2.134936     9B2g    2.134936  
      16Ag     2.139174    15B1u    2.313539    16B1u    2.378683  
      10B2u    4.826762    10B3u    4.826762    17Ag     4.836898  
       5B1g    4.868865    18Ag     4.869341    11B2u    4.882244  
      11B3u    4.882244    10B3g    4.884266    10B2g    4.884266  
       5Au     4.896965    17B1u    4.897444    11B3g    4.986919  
      11B2g    4.986919    18B1u    5.194689    12B2u    5.636620  
      12B3u    5.636620    19Ag     5.638962     6B1g    5.638981  
      20Ag     5.639225     6Au     5.639554    19B1u    5.639793  
      12B3g    5.641505    12B2g    5.641505    13B3u    5.641586  
      13B2u    5.641586    13B2g    5.641776    13B3g    5.641776  
      20B1u    5.643864    21Ag     5.643868     7B1g    5.644768  
       7Au     5.644769    21B1u    5.657995    22Ag    33.448662  
      22B1u   33.696996    23Ag   110.864969    23B1u  110.944850  

    Final Occupation by Irrep:
             Ag   B1g   B2g   B3g    Au   B1u   B2u   B3u 
    DOCC [     5,    1,    2,    2,    1,    4,    2,    2 ]

  @DF-RKS Final Energy:  -294.05623870385415

   => Energetics <=

    Nuclear Repulsion Energy =             75.6973346662759781
    One-Electron Energy =                -674.0146931999629487
    Two-Electron Energy =                 332.6102412242472610
    DFT Exchange-Correlation Energy =     -28.3489195544144934
    Empirical Dispersion Energy =          -0.0002018400000000
    VV10 Nonlocal Energy =                  0.0000000000000000
    Total Energy =                       -294.0562387038541488

Computation Completed


Properties will be evaluated at   0.000000,   0.000000,   0.000000 [a0]

Properties computed using the SCF density matrix

  Nuclear Dipole Moment: [e a0]
     X:     0.0000      Y:     0.0000      Z:     0.0000

  Electronic Dipole Moment: [e a0]
     X:     0.0000      Y:     0.0000      Z:     0.0000

  Dipole Moment: [e a0]
     X:     0.0000      Y:     0.0000      Z:     0.0000     Total:     0.0000

  Dipole Moment: [D]
     X:     0.0000      Y:     0.0000      Z:     0.0000     Total:     0.0000


*** tstop() called on compute078.bc4.acrc.priv at Tue Nov  2 10:36:07 2021
Module time:
	user time   =      55.50 seconds =       0.93 minutes
	system time =       2.25 seconds =       0.04 minutes
	total time  =          7 seconds =       0.12 minutes
Total time:
	user time   =      55.50 seconds =       0.93 minutes
	system time =       2.25 seconds =       0.04 minutes
	total time  =          7 seconds =       0.12 minutes

*** tstart() called on compute078.bc4.acrc.priv
*** at Tue Nov  2 10:36:07 2021


         ------------------------------------------------------------
                                   SCF GRAD                          
                          Rob Parrish, Justin Turney,                
                       Andy Simmonett, and Alex Sokolov              
         ------------------------------------------------------------

  ==> Geometry <==

    Molecular point group: d2h
    Full point group: D_inf_h

    Geometry (in Angstrom), charge = 0, multiplicity = 1:

       Center              X                  Y                   Z               Mass       
    ------------   -----------------  -----------------  -----------------  -----------------
         AG           0.000000000000     0.000000000000     1.261821000000   106.905091600000
         AG           0.000000000000     0.000000000000    -1.261821000000   106.905091600000

  Nuclear repulsion =   75.697334666275978

  ==> Basis Set <==

  Basis Set: DEF2-TZVPPD
    Blend: DEF2-TZVPPD
    Number of shells: 32
    Number of basis functions: 112
    Number of Cartesian functions: 142
    Spherical Harmonics?: true
    Max angular momentum: 4

  Core potential: DEF2-TZVPPD
    Number of shells: 8
    Number of ECP primitives: 28
    Number of ECP core electrons: 56
    Max angular momentum: 3

  ==> DFJKGrad: Density-Fitted SCF Gradients <==

    Gradient:                    1
    J tasked:                  Yes
    K tasked:                   No
    wK tasked:                  No
    OpenMP threads:             28
    Integrals threads:          28
    Memory [MiB]:           102996
    Schwarz Cutoff:          1E-12
    Fitting Condition:       1E-10

   => Auxiliary Basis Set <=

  Basis Set: (DEF2-TZVPPD AUX)
    Blend: DEF2-UNIVERSAL-JKFIT
    Number of shells: 98
    Number of basis functions: 510
    Number of Cartesian functions: 768
    Spherical Harmonics?: true
    Max angular momentum: 6

  ==> DFT Potential <==

   => Composite Functional: SCAN-D3BJ <= 

    SCAN Meta-GGA XC Functional
(10.1103/PhysRevLett.115.036402)
    J. Sun, A. Ruzsinszky, J. P. Perdew  Phys. Rev. Lett. 115, 036402, 2015


    Deriv               =              1
    GGA                 =           TRUE
    Meta                =           TRUE

    Exchange Hybrid     =          FALSE
    MP2 Hybrid          =          FALSE

   => Exchange Functionals <=

    1.0000   XC_MGGA_X_SCAN

   => Correlation Functionals <=

    1.0000   XC_MGGA_C_SCAN

   => LibXC Density Thresholds  <==

    XC_MGGA_C_SCAN:  1.00E-15 
    XC_MGGA_X_SCAN:  1.00E-15 

   => Molecular Quadrature <=

    Radial Scheme          =       TREUTLER
    Pruning Scheme         =           NONE
    Nuclear Scheme         =       TREUTLER

    BS radius alpha        =              1
    Pruning alpha          =              1
    Radial Points          =             75
    Spherical Points       =            302
    Total Points           =          41812
    Total Blocks           =            410
    Max Points             =            253
    Max Functions          =            110
    Weights Tolerance      =       1.00E-15


  -Total Gradient:
     Atom            X                  Y                   Z
    ------   -----------------  -----------------  -----------------
       1        0.000000000000     0.000000000000    -0.143222495196
       2        0.000000000000     0.000000000000     0.143222495196


*** tstop() called on compute078.bc4.acrc.priv at Tue Nov  2 10:36:15 2021
Module time:
	user time   =      39.40 seconds =       0.66 minutes
	system time =       3.28 seconds =       0.05 minutes
	total time  =          8 seconds =       0.13 minutes
Total time:
	user time   =      96.37 seconds =       1.61 minutes
	system time =       5.59 seconds =       0.09 minutes
	total time  =         15 seconds =       0.25 minutes


  ==> Adding ECP gradient terms (computed numerically) <==

  -ECP Gradient:
     Atom            X                  Y                   Z
    ------   -----------------  -----------------  -----------------
       1       -0.000000000000     0.000000000000     0.136961163918
       2       -0.000000000000     0.000000000000    -0.136961163918


  -Total Gradient:
     Atom            X                  Y                   Z
    ------   -----------------  -----------------  -----------------
       1       -0.000000000000     0.000000000000    -0.006261331278
       2       -0.000000000000     0.000000000000     0.006261331278


			-----------------------------------------
			 OPTKING 2.0: for geometry optimizations 
			  - R.A. King,  Bethel University        
			-----------------------------------------
	At level 1: Red. Int., RFO, no backsteps, dynamic trust

	Internal coordinates to be generated automatically.
	Detected frag 1 with atoms:  1 2
	---Fragment 1 Bond Connectivity---
	 1 : 2
	 2 : 1

	---Fragment 1 Geometry and Gradient---
	 AG          0.0000000000        0.0000000000        2.3844961094
	 AG          0.0000000000        0.0000000000       -2.3844961094
	            -0.0000000000        0.0000000000       -0.0062613313
	            -0.0000000000        0.0000000000        0.0062613313

	Previous optimization step data not found.  Starting new optimization.

	---Fragment 1 Intrafragment Coordinates---
	 - Coordinate -           - BOHR/RAD -       - ANG/DEG -
	 R(1,2)           =         4.768992	       2.523642

	Current energy   :      -294.0562387039

	Generating empirical Hessian (Schlegel '84) for each fragment.
	Taking RFO optimization step.
	Going to follow RFO solution 1.
	Using RFO vector 1.
	Norm of target step-size    0.07080
	Projected energy change by RFO approximation:         0.0020524382

	Back-transformation to cartesian coordinates...
	Successfully converged to displaced geometry.

	--- Internal Coordinate Step in ANG or DEG, aJ/ANG or AJ/DEG ---
	 ---------------------------------------------------------------------------
	   Coordinate                Previous        Force       Change         New 
	   ----------                --------       ------       ------       ------
	    1 R(1,2)          =      2.523642     0.051585     0.037463     2.561105
	 ---------------------------------------------------------------------------
	Successfully symmetrized geometry.

  ==> Convergence Check <==

  Measures of convergence in internal coordinates in au.
  Criteria marked as inactive (o), active & met (*), and active & unmet ( ).
  --------------------------------------------------------------------------------------------- ~
   Step     Total Energy     Delta E     MAX Force     RMS Force      MAX Disp      RMS Disp    ~
  --------------------------------------------------------------------------------------------- ~
    Convergence Criteria    1.00e-06 *    3.00e-04 *             o    1.20e-03 *             o  ~
  --------------------------------------------------------------------------------------------- ~
      1    -294.05623870   -2.94e+02      6.26e-03      6.26e-03 o    7.08e-02      7.08e-02 o  ~
  ---------------------------------------------------------------------------------------------

	Writing optimization data to binary file.
	Structure for next step:
	Cartesian Geometry (in Angstrom)
	   AG     0.0000000000   0.0000000000   1.2805526680
	   AG     0.0000000000   0.0000000000  -1.2805526680
			--------------------------
			 OPTKING Finished Execution 
			--------------------------

    Structure for next step:
    Molecular point group: d2h
    Full point group: D_inf_h

    Geometry (in Angstrom), charge = 0, multiplicity = 1:

    AG           0.000000000000     0.000000000000     1.280552673070
    AG           0.000000000000     0.000000000000    -1.280552673070


Scratch directory: /tmp/
gradient() will perform analytic gradient computation.

*** tstart() called on compute078.bc4.acrc.priv
*** at Tue Nov  2 10:37:19 2021

   => Loading Basis Set <=

    Name: DEF2-TZVPPD
    Role: ORBITAL
    Keyword: BASIS
    atoms 1-2 entry AG         line  2174 (ECP: line  3646) file /mnt/storage/home/zw18965/.conda/envs/p4env/share/psi4/basis/def2-tzvppd.gbs 

    !!!  WARNING: ECP capability is in beta. Please check occupations closely.  !!!

   => SCAN-D3(BJ): Empirical Dispersion <=

    Grimme's -D3 (BJ-damping) Dispersion Correction
    Grimme S.; Ehrlich S.; Goerigk L. (2011), J. Comput. Chem., 32: 1456
    Parametrisation from:    J.G. Brandenburg, J. E. Bates, J. Sun, J.P. Perdew, Phys. Rev. B 94, 115144, 2016

        s6 =       1.000000
        s8 =       0.000000
        a1 =       0.538000
        a2 =       5.420000


         ---------------------------------------------------------
                                   SCF
               by Justin Turney, Rob Parrish, Andy Simmonett
                          and Daniel G. A. Smith
                              RKS Reference
                       28 Threads, 137329 MiB Core
         ---------------------------------------------------------

  ==> Geometry <==

    Molecular point group: d2h
    Full point group: D_inf_h

    Geometry (in Angstrom), charge = 0, multiplicity = 1:

       Center              X                  Y                   Z               Mass       
    ------------   -----------------  -----------------  -----------------  -----------------
         AG           0.000000000000     0.000000000000     1.280552673070   106.905091600000
         AG           0.000000000000     0.000000000000    -1.280552673070   106.905091600000

  Running in d2h symmetry.

  Rotational constants: A = ************  B =      0.04808  C =      0.04808 [cm^-1]
  Rotational constants: A = ************  B =   1441.43120  C =   1441.43120 [MHz]
  Nuclear repulsion =   74.590048917661548

  Charge       = 0
  Multiplicity = 1
  Electrons    = 38
  Nalpha       = 19
  Nbeta        = 19

  ==> Algorithm <==

  SCF Algorithm Type is DF.
  DIIS enabled.
  MOM disabled.
  Fractional occupation disabled.
  Guess Type is READ.
  Energy threshold   = 1.00e-08
  Density threshold  = 1.00e-08
  Integral threshold = 1.00e-12

  ==> Primary Basis <==

  Basis Set: DEF2-TZVPPD
    Blend: DEF2-TZVPPD
    Number of shells: 32
    Number of basis functions: 112
    Number of Cartesian functions: 142
    Spherical Harmonics?: true
    Max angular momentum: 4

  Core potential: DEF2-TZVPPD
    Number of shells: 8
    Number of ECP primitives: 28
    Number of ECP core electrons: 56
    Max angular momentum: 3

  ==> DFT Potential <==

   => Composite Functional: SCAN-D3BJ <= 

    SCAN Meta-GGA XC Functional
(10.1103/PhysRevLett.115.036402)
    J. Sun, A. Ruzsinszky, J. P. Perdew  Phys. Rev. Lett. 115, 036402, 2015


    Deriv               =              1
    GGA                 =           TRUE
    Meta                =           TRUE

    Exchange Hybrid     =          FALSE
    MP2 Hybrid          =          FALSE

   => Exchange Functionals <=

    1.0000   XC_MGGA_X_SCAN

   => Correlation Functionals <=

    1.0000   XC_MGGA_C_SCAN

   => LibXC Density Thresholds  <==

    XC_MGGA_C_SCAN:  1.00E-15 
    XC_MGGA_X_SCAN:  1.00E-15 

   => Molecular Quadrature <=

    Radial Scheme          =       TREUTLER
    Pruning Scheme         =           NONE
    Nuclear Scheme         =       TREUTLER

    BS radius alpha        =              1
    Pruning alpha          =              1
    Radial Points          =             75
    Spherical Points       =            302
    Total Points           =          41812
    Total Blocks           =            414
    Max Points             =            252
    Max Functions          =            110
    Weights Tolerance      =       1.00E-15

   => Loading Basis Set <=

    Name: (DEF2-TZVPPD AUX)
    Role: JKFIT
    Keyword: DF_BASIS_SCF
    atoms 1-2 entry AG         line  4364 file /mnt/storage/home/zw18965/.conda/envs/p4env/share/psi4/basis/def2-universal-jkfit.gbs 

   => Loading Basis Set <=

    Name: DEF2-TZVPPD
    Role: ORBITAL
    Keyword: BASIS
    atoms 1-2 entry AG         line  2174 (ECP: line  3646) file /mnt/storage/home/zw18965/.conda/envs/p4env/share/psi4/basis/def2-tzvppd.gbs 

    !!!  WARNING: ECP capability is in beta. Please check occupations closely.  !!!

  Reading orbitals from file /tmp/Ag02N0.default.30037.180.npy, no projection.

  ==> Integral Setup <==

  DFHelper Memory: AOs need 0.055 GiB; user supplied 100.335 GiB. Using in-core AOs.

  ==> MemDFJK: Density-Fitted J/K Matrices <==

    J tasked:                   Yes
    K tasked:                    No
    wK tasked:                   No
    OpenMP threads:              28
    Memory [MiB]:            102743
    Algorithm:                 Core
    Schwarz Cutoff:           1E-12
    Mask sparsity (%):       1.0523
    Fitting Condition:        1E-10

   => Auxiliary Basis Set <=

  Basis Set: (DEF2-TZVPPD AUX)
    Blend: DEF2-UNIVERSAL-JKFIT
    Number of shells: 98
    Number of basis functions: 510
    Number of Cartesian functions: 768
    Spherical Harmonics?: true
    Max angular momentum: 6

  Cached 100.0% of DFT collocation blocks in 0.248 [GiB].

  Minimum eigenvalue in the overlap matrix is 8.9371721272E-03.
  Reciprocal condition number of the overlap matrix is 2.3015602994E-03.
    Using symmetric orthogonalization.

  ==> Pre-Iterations <==

  SCF Guess: Orbitals guess was supplied from a previous computation.

   -------------------------------------------------------
    Irrep   Nso     Nmo     Nalpha   Nbeta   Ndocc  Nsocc
   -------------------------------------------------------
     Ag        23      23       5       5       5       0
     B1g        7       7       1       1       1       0
     B2g       13      13       2       2       2       0
     B3g       13      13       2       2       2       0
     Au         7       7       1       1       1       0
     B1u       23      23       4       4       4       0
     B2u       13      13       2       2       2       0
     B3u       13      13       2       2       2       0
   -------------------------------------------------------
    Total     112     112      19      19      19       0
   -------------------------------------------------------

  ==> Iterations <==

                           Total Energy        Delta E     RMS |[F,P]|

   @DF-RKS iter   0:  -294.05361496351429   -2.94054e+02   1.23561e-03 
   @DF-RKS iter   1:  -294.05591773577356   -2.30277e-03   6.05338e-05 DIIS
   @DF-RKS iter   2:  -294.05591462233610    3.11344e-06   1.12293e-04 DIIS
   @DF-RKS iter   3:  -294.05592189308305   -7.27075e-06   1.01608e-05 DIIS
   @DF-RKS iter   4:  -294.05592198054069   -8.74576e-08   2.02155e-06 DIIS
   @DF-RKS iter   5:  -294.05592198282142   -2.28073e-09   1.21499e-06 DIIS
   @DF-RKS iter   6:  -294.05592198361370   -7.92284e-10   2.38337e-07 DIIS
   @DF-RKS iter   7:  -294.05592198364883   -3.51292e-11   2.74569e-08 DIIS
   @DF-RKS iter   8:  -294.05592198364934   -5.11591e-13   2.82635e-09 DIIS
  Energy and wave function converged.


  ==> Post-Iterations <==

   Electrons on quadrature grid:
      Ntotal   =   37.9999744903 ; deviation = -2.551e-05 

    Orbital Energies [Eh]
    ---------------------

    Doubly Occupied:                                                      

       1Ag    -3.680267     1B1u   -3.679738     2Ag    -2.273427  
       2B1u   -2.267696     1B3u   -2.266267     1B2u   -2.266267  
       1B2g   -2.265721     1B3g   -2.265721     3Ag    -0.310532  
       2B2u   -0.291658     2B3u   -0.291658     4Ag    -0.271447  
       1B1g   -0.271438     3B1u   -0.263777     1Au    -0.263767  
       2B3g   -0.253803     2B2g   -0.253803     4B1u   -0.248676  
       5Ag    -0.196771  

    Virtual:                                                              

       5B1u   -0.110097     3B2u   -0.028605     3B3u   -0.028605  
       6Ag    -0.008962     3B3g    0.040358     3B2g    0.040358  
       6B1u    0.091088     7Ag     0.108970     7B1u    0.158891  
       8Ag     0.179457     4B3u    0.186565     4B2u    0.186565  
       4B2g    0.235266     4B3g    0.235266     8B1u    0.360854  
       9Ag     0.375132     2B1g    0.375143     5B3u    0.408724  
       5B2u    0.408724     2Au     0.469634     9B1u    0.469638  
      10Ag     0.576119     5B3g    0.590775     5B2g    0.590775  
      10B1u    0.715374    11Ag     1.408330     6B2u    1.535254  
       6B3u    1.535254     3B1g    1.578201    12Ag     1.578289  
       7B2u    1.592955     7B3u    1.592955     6B3g    1.594904  
       6B2g    1.594904     3Au     1.605653    11B1u    1.605736  
       8B3u    1.609296     8B2u    1.609296     7B2g    1.610491  
       7B3g    1.610491    12B1u    1.628508    13Ag     1.718075  
       8B2g    1.728846     8B3g    1.728846    13B1u    1.747617  
      14Ag     1.932815    15Ag     2.028489     4B1g    2.028528  
       9B3u    2.053851     9B2u    2.053851    14B1u    2.067035  
       4Au     2.067069     9B2g    2.129666     9B3g    2.129666  
      16Ag     2.145911    15B1u    2.290513    16B1u    2.368605  
      10B3u    4.834226    10B2u    4.834226    17Ag     4.835360  
       5B1g    4.871388    18Ag     4.871858    11B3u    4.882694  
      11B2u    4.882694    10B2g    4.884320    10B3g    4.884320  
       5Au     4.894796    17B1u    4.895269    11B2g    4.975535  
      11B3g    4.975535    18B1u    5.173424    12B3u    5.637480  
      12B2u    5.637480    19Ag     5.639187     6B1g    5.639504  
      20Ag     5.639750     6Au     5.639907    19B1u    5.640148  
      12B2g    5.641376    12B3g    5.641376    13B3u    5.641881  
      13B2u    5.641881    13B2g    5.641937    13B3g    5.641937  
      20B1u    5.644001    21Ag     5.644006     7B1g    5.644858  
       7Au     5.644859    21B1u    5.653472    22Ag    33.442430  
      22B1u   33.690178    23Ag   110.863303    23B1u  110.942926  

    Final Occupation by Irrep:
             Ag   B1g   B2g   B3g    Au   B1u   B2u   B3u 
    DOCC [     5,    1,    2,    2,    1,    4,    2,    2 ]

  @DF-RKS Final Energy:  -294.05592198364934

   => Energetics <=

    Nuclear Repulsion Energy =             74.5900489176615480
    One-Electron Energy =                -671.8222419772733929
    Two-Electron Energy =                 331.5213805465220958
    DFT Exchange-Correlation Energy =     -28.3449076205595851
    Empirical Dispersion Energy =          -0.0002018500000000
    VV10 Nonlocal Energy =                  0.0000000000000000
    Total Energy =                       -294.0559219836493412

Computation Completed


Properties will be evaluated at   0.000000,   0.000000,   0.000000 [a0]

Properties computed using the SCF density matrix

  Nuclear Dipole Moment: [e a0]
     X:     0.0000      Y:     0.0000      Z:    -0.0000

  Electronic Dipole Moment: [e a0]
     X:     0.0000      Y:     0.0000      Z:     0.0000

  Dipole Moment: [e a0]
     X:     0.0000      Y:     0.0000      Z:    -0.0000     Total:     0.0000

  Dipole Moment: [D]
     X:     0.0000      Y:     0.0000      Z:    -0.0000     Total:     0.0000


*** tstop() called on compute078.bc4.acrc.priv at Tue Nov  2 10:37:23 2021
Module time:
	user time   =      46.73 seconds =       0.78 minutes
	system time =       1.60 seconds =       0.03 minutes
	total time  =          4 seconds =       0.07 minutes
Total time:
	user time   =     491.93 seconds =       8.20 minutes
	system time =      12.40 seconds =       0.21 minutes
	total time  =         83 seconds =       1.38 minutes

*** tstart() called on compute078.bc4.acrc.priv
*** at Tue Nov  2 10:37:23 2021


         ------------------------------------------------------------
                                   SCF GRAD                          
                          Rob Parrish, Justin Turney,                
                       Andy Simmonett, and Alex Sokolov              
         ------------------------------------------------------------

  ==> Geometry <==

    Molecular point group: d2h
    Full point group: D_inf_h

    Geometry (in Angstrom), charge = 0, multiplicity = 1:

       Center              X                  Y                   Z               Mass       
    ------------   -----------------  -----------------  -----------------  -----------------
         AG           0.000000000000     0.000000000000     1.280552673070   106.905091600000
         AG           0.000000000000     0.000000000000    -1.280552673070   106.905091600000

  Nuclear repulsion =   74.590048917661548

  ==> Basis Set <==

  Basis Set: DEF2-TZVPPD
    Blend: DEF2-TZVPPD
    Number of shells: 32
    Number of basis functions: 112
    Number of Cartesian functions: 142
    Spherical Harmonics?: true
    Max angular momentum: 4

  Core potential: DEF2-TZVPPD
    Number of shells: 8
    Number of ECP primitives: 28
    Number of ECP core electrons: 56
    Max angular momentum: 3

  ==> DFJKGrad: Density-Fitted SCF Gradients <==

    Gradient:                    1
    J tasked:                  Yes
    K tasked:                   No
    wK tasked:                  No
    OpenMP threads:             28
    Integrals threads:          28
    Memory [MiB]:           102996
    Schwarz Cutoff:          1E-12
    Fitting Condition:       1E-10

   => Auxiliary Basis Set <=

  Basis Set: (DEF2-TZVPPD AUX)
    Blend: DEF2-UNIVERSAL-JKFIT
    Number of shells: 98
    Number of basis functions: 510
    Number of Cartesian functions: 768
    Spherical Harmonics?: true
    Max angular momentum: 6

  ==> DFT Potential <==

   => Composite Functional: SCAN-D3BJ <= 

    SCAN Meta-GGA XC Functional
(10.1103/PhysRevLett.115.036402)
    J. Sun, A. Ruzsinszky, J. P. Perdew  Phys. Rev. Lett. 115, 036402, 2015


    Deriv               =              1
    GGA                 =           TRUE
    Meta                =           TRUE

    Exchange Hybrid     =          FALSE
    MP2 Hybrid          =          FALSE

   => Exchange Functionals <=

    1.0000   XC_MGGA_X_SCAN

   => Correlation Functionals <=

    1.0000   XC_MGGA_C_SCAN

   => LibXC Density Thresholds  <==

    XC_MGGA_C_SCAN:  1.00E-15 
    XC_MGGA_X_SCAN:  1.00E-15 

   => Molecular Quadrature <=

    Radial Scheme          =       TREUTLER
    Pruning Scheme         =           NONE
    Nuclear Scheme         =       TREUTLER

    BS radius alpha        =              1
    Pruning alpha          =              1
    Radial Points          =             75
    Spherical Points       =            302
    Total Points           =          41812
    Total Blocks           =            414
    Max Points             =            252
    Max Functions          =            110
    Weights Tolerance      =       1.00E-15


  -Total Gradient:
     Atom            X                  Y                   Z
    ------   -----------------  -----------------  -----------------
       1        0.000000000000     0.000000000000    -0.129924850212
       2       -0.000000000000     0.000000000000     0.129924850212


*** tstop() called on compute078.bc4.acrc.priv at Tue Nov  2 10:37:30 2021
Module time:
	user time   =      41.60 seconds =       0.69 minutes
	system time =       1.73 seconds =       0.03 minutes
	total time  =          7 seconds =       0.12 minutes
Total time:
	user time   =     536.47 seconds =       8.94 minutes
	system time =      14.26 seconds =       0.24 minutes
	total time  =         90 seconds =       1.50 minutes


  ==> Adding ECP gradient terms (computed numerically) <==

  -ECP Gradient:
     Atom            X                  Y                   Z
    ------   -----------------  -----------------  -----------------
       1        0.000000000000     0.000000000000     0.128368345376
       2        0.000000000000     0.000000000000    -0.128368345376


  -Total Gradient:
     Atom            X                  Y                   Z
    ------   -----------------  -----------------  -----------------
       1        0.000000000000     0.000000000000    -0.001556504836
       2        0.000000000000     0.000000000000     0.001556504836


			-----------------------------------------
			 OPTKING 2.0: for geometry optimizations 
			  - R.A. King,  Bethel University        
			-----------------------------------------
	At level 1: Red. Int., RFO, no backsteps, dynamic trust

	Previous internal coordinate definitions found.
	---Fragment 1 Geometry and Gradient---
	 AG          0.0000000000        0.0000000000        2.4198938413
	 AG          0.0000000000        0.0000000000       -2.4198938413
	             0.0000000000        0.0000000000       -0.0015565048
	             0.0000000000        0.0000000000        0.0015565048

	---Fragment 1 Intrafragment Coordinates---
	 - Coordinate -           - BOHR/RAD -       - ANG/DEG -
	 R(1,2)           =         4.839788	       2.561105

	Current energy   :      -294.0559219836

	Energy change for the previous step:
		Projected    :         0.0020524382
		Actual       :         0.0003167202

	Performing BFGS update.
	Previous computed or guess Hessian on step 1.
	Steps to be used in Hessian update: 1
	Taking RFO optimization step.
	Going to follow RFO solution 1.
	Using RFO vector 1.
	Norm of target step-size    0.02341
	Projected energy change by RFO approximation:         0.0002374142

	Back-transformation to cartesian coordinates...
	Successfully converged to displaced geometry.

	--- Internal Coordinate Step in ANG or DEG, aJ/ANG or AJ/DEG ---
	 ---------------------------------------------------------------------------
	   Coordinate                Previous        Force       Change         New 
	   ----------                --------       ------       ------       ------
	    1 R(1,2)          =      2.561105     0.012824     0.012387     2.573493
	 ---------------------------------------------------------------------------
	Successfully symmetrized geometry.

  ==> Convergence Check <==

  Measures of convergence in internal coordinates in au.
  Criteria marked as inactive (o), active & met (*), and active & unmet ( ).
  ---------------------------------------------------------------------------------------------
   Step     Total Energy     Delta E     MAX Force     RMS Force      MAX Disp      RMS Disp   
  ---------------------------------------------------------------------------------------------
    Convergence Criteria    1.00e-06 *    3.00e-04 *             o    1.20e-03 *             o
  ---------------------------------------------------------------------------------------------
      2    -294.05592198    3.17e-04      1.56e-03      1.56e-03 o    2.34e-02      2.34e-02 o  ~
  ---------------------------------------------------------------------------------------------

	Writing optimization data to binary file.
	Structure for next step:
	Cartesian Geometry (in Angstrom)
	   AG     0.0000000000   0.0000000000   1.2867463000
	   AG     0.0000000000   0.0000000000  -1.2867463000
			--------------------------
			 OPTKING Finished Execution 
			--------------------------

    Structure for next step:
    Molecular point group: d2h
    Full point group: D_inf_h

    Geometry (in Angstrom), charge = 0, multiplicity = 1:

    AG           0.000000000000     0.000000000000     1.286746305037
    AG           0.000000000000     0.000000000000    -1.286746305037


Scratch directory: /tmp/
gradient() will perform analytic gradient computation.

*** tstart() called on compute078.bc4.acrc.priv
*** at Tue Nov  2 10:38:34 2021

   => Loading Basis Set <=

    Name: DEF2-TZVPPD
    Role: ORBITAL
    Keyword: BASIS
    atoms 1-2 entry AG         line  2174 (ECP: line  3646) file /mnt/storage/home/zw18965/.conda/envs/p4env/share/psi4/basis/def2-tzvppd.gbs 

    !!!  WARNING: ECP capability is in beta. Please check occupations closely.  !!!

   => SCAN-D3(BJ): Empirical Dispersion <=

    Grimme's -D3 (BJ-damping) Dispersion Correction
    Grimme S.; Ehrlich S.; Goerigk L. (2011), J. Comput. Chem., 32: 1456
    Parametrisation from:    J.G. Brandenburg, J. E. Bates, J. Sun, J.P. Perdew, Phys. Rev. B 94, 115144, 2016

        s6 =       1.000000
        s8 =       0.000000
        a1 =       0.538000
        a2 =       5.420000


         ---------------------------------------------------------
                                   SCF
               by Justin Turney, Rob Parrish, Andy Simmonett
                          and Daniel G. A. Smith
                              RKS Reference
                       28 Threads, 137329 MiB Core
         ---------------------------------------------------------

  ==> Geometry <==

    Molecular point group: d2h
    Full point group: D_inf_h

    Geometry (in Angstrom), charge = 0, multiplicity = 1:

       Center              X                  Y                   Z               Mass       
    ------------   -----------------  -----------------  -----------------  -----------------
         AG           0.000000000000     0.000000000000     1.286746305037   106.905091600000
         AG           0.000000000000     0.000000000000    -1.286746305037   106.905091600000

  Running in d2h symmetry.

  Rotational constants: A = ************  B =      0.04762  C =      0.04762 [cm^-1]
  Rotational constants: A = ************  B =   1427.58821  C =   1427.58821 [MHz]
  Nuclear repulsion =   74.231016752880564

  Charge       = 0
  Multiplicity = 1
  Electrons    = 38
  Nalpha       = 19
  Nbeta        = 19

  ==> Algorithm <==

  SCF Algorithm Type is DF.
  DIIS enabled.
  MOM disabled.
  Fractional occupation disabled.
  Guess Type is READ.
  Energy threshold   = 1.00e-08
  Density threshold  = 1.00e-08
  Integral threshold = 1.00e-12

  ==> Primary Basis <==

  Basis Set: DEF2-TZVPPD
    Blend: DEF2-TZVPPD
    Number of shells: 32
    Number of basis functions: 112
    Number of Cartesian functions: 142
    Spherical Harmonics?: true
    Max angular momentum: 4

  Core potential: DEF2-TZVPPD
    Number of shells: 8
    Number of ECP primitives: 28
    Number of ECP core electrons: 56
    Max angular momentum: 3

  ==> DFT Potential <==

   => Composite Functional: SCAN-D3BJ <= 

    SCAN Meta-GGA XC Functional
(10.1103/PhysRevLett.115.036402)
    J. Sun, A. Ruzsinszky, J. P. Perdew  Phys. Rev. Lett. 115, 036402, 2015


    Deriv               =              1
    GGA                 =           TRUE
    Meta                =           TRUE

    Exchange Hybrid     =          FALSE
    MP2 Hybrid          =          FALSE

   => Exchange Functionals <=

    1.0000   XC_MGGA_X_SCAN

   => Correlation Functionals <=

    1.0000   XC_MGGA_C_SCAN

   => LibXC Density Thresholds  <==

    XC_MGGA_C_SCAN:  1.00E-15 
    XC_MGGA_X_SCAN:  1.00E-15 

   => Molecular Quadrature <=

    Radial Scheme          =       TREUTLER
    Pruning Scheme         =           NONE
    Nuclear Scheme         =       TREUTLER

    BS radius alpha        =              1
    Pruning alpha          =              1
    Radial Points          =             75
    Spherical Points       =            302
    Total Points           =          41812
    Total Blocks           =            414
    Max Points             =            252
    Max Functions          =            110
    Weights Tolerance      =       1.00E-15

   => Loading Basis Set <=

    Name: (DEF2-TZVPPD AUX)
    Role: JKFIT
    Keyword: DF_BASIS_SCF
    atoms 1-2 entry AG         line  4364 file /mnt/storage/home/zw18965/.conda/envs/p4env/share/psi4/basis/def2-universal-jkfit.gbs 

   => Loading Basis Set <=

    Name: DEF2-TZVPPD
    Role: ORBITAL
    Keyword: BASIS
    atoms 1-2 entry AG         line  2174 (ECP: line  3646) file /mnt/storage/home/zw18965/.conda/envs/p4env/share/psi4/basis/def2-tzvppd.gbs 

    !!!  WARNING: ECP capability is in beta. Please check occupations closely.  !!!

  Reading orbitals from file /tmp/Ag02N0.default.30037.180.npy, no projection.

  ==> Integral Setup <==

  DFHelper Memory: AOs need 0.055 GiB; user supplied 100.335 GiB. Using in-core AOs.

  ==> MemDFJK: Density-Fitted J/K Matrices <==

    J tasked:                   Yes
    K tasked:                    No
    wK tasked:                   No
    OpenMP threads:              28
    Memory [MiB]:            102743
    Algorithm:                 Core
    Schwarz Cutoff:           1E-12
    Mask sparsity (%):       1.1798
    Fitting Condition:        1E-10

   => Auxiliary Basis Set <=

  Basis Set: (DEF2-TZVPPD AUX)
    Blend: DEF2-UNIVERSAL-JKFIT
    Number of shells: 98
    Number of basis functions: 510
    Number of Cartesian functions: 768
    Spherical Harmonics?: true
    Max angular momentum: 6

  Cached 100.0% of DFT collocation blocks in 0.247 [GiB].

  Minimum eigenvalue in the overlap matrix is 9.1107475331E-03.
  Reciprocal condition number of the overlap matrix is 2.3506385282E-03.
    Using symmetric orthogonalization.

  ==> Pre-Iterations <==

  SCF Guess: Orbitals guess was supplied from a previous computation.

   -------------------------------------------------------
    Irrep   Nso     Nmo     Nalpha   Nbeta   Ndocc  Nsocc
   -------------------------------------------------------
     Ag        23      23       5       5       5       0
     B1g        7       7       1       1       1       0
     B2g       13      13       2       2       2       0
     B3g       13      13       2       2       2       0
     Au         7       7       1       1       1       0
     B1u       23      23       4       4       4       0
     B2u       13      13       2       2       2       0
     B3u       13      13       2       2       2       0
   -------------------------------------------------------
    Total     112     112      19      19      19       0
   -------------------------------------------------------

  ==> Iterations <==

                           Total Energy        Delta E     RMS |[F,P]|

   @DF-RKS iter   0:  -294.05492651869690   -2.94055e+02   3.95276e-04 
   @DF-RKS iter   1:  -294.05574695746810   -8.20439e-04   2.30090e-05 DIIS
   @DF-RKS iter   2:  -294.05574641813308    5.39335e-07   4.39605e-05 DIIS
   @DF-RKS iter   3:  -294.05574752184492   -1.10371e-06   4.07175e-06 DIIS
   @DF-RKS iter   4:  -294.05574753559267   -1.37478e-08   9.26123e-07 DIIS
   @DF-RKS iter   5:  -294.05574753609511   -5.02439e-10   3.90210e-07 DIIS
   @DF-RKS iter   6:  -294.05574753617577   -8.06608e-11   7.66440e-08 DIIS
   @DF-RKS iter   7:  -294.05574753617941   -3.63798e-12   9.42297e-09 DIIS
  Energy and wave function converged.


  ==> Post-Iterations <==

   Electrons on quadrature grid:
      Ntotal   =   37.9999752281 ; deviation = -2.477e-05 

    Orbital Energies [Eh]
    ---------------------

    Doubly Occupied:                                                      

       1Ag    -3.680103     1B1u   -3.679607     2Ag    -2.273056  
       2B1u   -2.267611     1B2u   -2.266150     1B3u   -2.266150  
       1B3g   -2.265634     1B2g   -2.265634     3Ag    -0.309514  
       2B2u   -0.290966     2B3u   -0.290966     4Ag    -0.271272  
       1B1g   -0.271267     3B1u   -0.263822     1Au    -0.263817  
       2B3g   -0.254067     2B2g   -0.254067     4B1u   -0.249028  
       5Ag    -0.196498  

    Virtual:                                                              

       5B1u   -0.110435     3B2u   -0.028499     3B3u   -0.028499  
       6Ag    -0.009244     3B2g    0.040018     3B3g    0.040018  
       6B1u    0.090684     7Ag     0.108885     7B1u    0.158906  
       8Ag     0.179285     4B3u    0.186770     4B2u    0.186770  
       4B2g    0.234902     4B3g    0.234902     8B1u    0.358749  
       9Ag     0.375382     2B1g    0.375393     5B3u    0.407496  
       5B2u    0.407496     2Au     0.469110     9B1u    0.469115  
      10Ag     0.575116     5B3g    0.590204     5B2g    0.590204  
      10B1u    0.714203    11Ag     1.416408     6B2u    1.537966  
       6B3u    1.537966     3B1g    1.578958    12Ag     1.579063  
       7B2u    1.593017     7B3u    1.593017     6B3g    1.594835  
       6B2g    1.594835     3Au     1.604918    11B1u    1.605019  
       7B3g    1.609108     7B2g    1.609108     8B2u    1.609322  
       8B3u    1.609322    12B1u    1.627871    13Ag     1.717795  
       8B3g    1.726261     8B2g    1.726261    13B1u    1.743934  
      14Ag     1.930041    15Ag     2.028505     4B1g    2.028546  
       9B3u    2.055686     9B2u    2.055686    14B1u    2.066806  
       4Au     2.066843     9B2g    2.128116     9B3g    2.128116  
      16Ag     2.148484    15B1u    2.282631    16B1u    2.365996  
      17Ag     4.835140    10B2u    4.836606    10B3u    4.836606  
       5B1g    4.872142    18Ag     4.872601    11B2u    4.882825  
      11B3u    4.882825    10B3g    4.884337    10B2g    4.884337  
       5Au     4.894154    17B1u    4.894615    11B3g    4.972017  
      11B2g    4.972017    18B1u    5.166538    12B2u    5.637716  
      12B3u    5.637716    19Ag     5.639289     6B1g    5.639657  
      20Ag     5.639937     6Au     5.640018    19B1u    5.640292  
      12B3g    5.641324    12B2g    5.641324    13B2u    5.641970  
      13B3u    5.641970    13B3g    5.642019    13B2g    5.642019  
      20B1u    5.644038    21Ag     5.644044     7B1g    5.644880  
       7Au     5.644880    21B1u    5.652371    22Ag    33.440397  
      22B1u   33.687796    23Ag   110.862756    23B1u  110.942244  

    Final Occupation by Irrep:
             Ag   B1g   B2g   B3g    Au   B1u   B2u   B3u 
    DOCC [     5,    1,    2,    2,    1,    4,    2,    2 ]

  @DF-RKS Final Energy:  -294.05574753617941

   => Energetics <=

    Nuclear Repulsion Energy =             74.2310167528805636
    One-Electron Energy =                -671.1108116550285558
    Two-Electron Energy =                 331.1679188351882885
    DFT Exchange-Correlation Energy =     -28.3436696092196989
    Empirical Dispersion Energy =          -0.0002018600000000
    VV10 Nonlocal Energy =                  0.0000000000000000
    Total Energy =                       -294.0557475361794104

Computation Completed


Properties will be evaluated at   0.000000,   0.000000,   0.000000 [a0]

Properties computed using the SCF density matrix

  Nuclear Dipole Moment: [e a0]
     X:     0.0000      Y:     0.0000      Z:     0.0000

  Electronic Dipole Moment: [e a0]
     X:     0.0000      Y:     0.0000      Z:     0.0000

  Dipole Moment: [e a0]
     X:     0.0000      Y:     0.0000      Z:     0.0000     Total:     0.0000

  Dipole Moment: [D]
     X:     0.0000      Y:     0.0000      Z:     0.0000     Total:     0.0000


*** tstop() called on compute078.bc4.acrc.priv at Tue Nov  2 10:38:38 2021
Module time:
	user time   =      43.12 seconds =       0.72 minutes
	system time =       1.58 seconds =       0.03 minutes
	total time  =          4 seconds =       0.07 minutes
Total time:
	user time   =     931.44 seconds =      15.52 minutes
	system time =      21.10 seconds =       0.35 minutes
	total time  =        158 seconds =       2.63 minutes

*** tstart() called on compute078.bc4.acrc.priv
*** at Tue Nov  2 10:38:38 2021


         ------------------------------------------------------------
                                   SCF GRAD                          
                          Rob Parrish, Justin Turney,                
                       Andy Simmonett, and Alex Sokolov              
         ------------------------------------------------------------

  ==> Geometry <==

    Molecular point group: d2h
    Full point group: D_inf_h

    Geometry (in Angstrom), charge = 0, multiplicity = 1:

       Center              X                  Y                   Z               Mass       
    ------------   -----------------  -----------------  -----------------  -----------------
         AG           0.000000000000     0.000000000000     1.286746305037   106.905091600000
         AG           0.000000000000     0.000000000000    -1.286746305037   106.905091600000

  Nuclear repulsion =   74.231016752880564

  ==> Basis Set <==

  Basis Set: DEF2-TZVPPD
    Blend: DEF2-TZVPPD
    Number of shells: 32
    Number of basis functions: 112
    Number of Cartesian functions: 142
    Spherical Harmonics?: true
    Max angular momentum: 4

  Core potential: DEF2-TZVPPD
    Number of shells: 8
    Number of ECP primitives: 28
    Number of ECP core electrons: 56
    Max angular momentum: 3

  ==> DFJKGrad: Density-Fitted SCF Gradients <==

    Gradient:                    1
    J tasked:                  Yes
    K tasked:                   No
    wK tasked:                  No
    OpenMP threads:             28
    Integrals threads:          28
    Memory [MiB]:           102996
    Schwarz Cutoff:          1E-12
    Fitting Condition:       1E-10

   => Auxiliary Basis Set <=

  Basis Set: (DEF2-TZVPPD AUX)
    Blend: DEF2-UNIVERSAL-JKFIT
    Number of shells: 98
    Number of basis functions: 510
    Number of Cartesian functions: 768
    Spherical Harmonics?: true
    Max angular momentum: 6

  ==> DFT Potential <==

   => Composite Functional: SCAN-D3BJ <= 

    SCAN Meta-GGA XC Functional
(10.1103/PhysRevLett.115.036402)
    J. Sun, A. Ruzsinszky, J. P. Perdew  Phys. Rev. Lett. 115, 036402, 2015


    Deriv               =              1
    GGA                 =           TRUE
    Meta                =           TRUE

    Exchange Hybrid     =          FALSE
    MP2 Hybrid          =          FALSE

   => Exchange Functionals <=

    1.0000   XC_MGGA_X_SCAN

   => Correlation Functionals <=

    1.0000   XC_MGGA_C_SCAN

   => LibXC Density Thresholds  <==

    XC_MGGA_C_SCAN:  1.00E-15 
    XC_MGGA_X_SCAN:  1.00E-15 

   => Molecular Quadrature <=

    Radial Scheme          =       TREUTLER
    Pruning Scheme         =           NONE
    Nuclear Scheme         =       TREUTLER

    BS radius alpha        =              1
    Pruning alpha          =              1
    Radial Points          =             75
    Spherical Points       =            302
    Total Points           =          41812
    Total Blocks           =            414
    Max Points             =            252
    Max Functions          =            110
    Weights Tolerance      =       1.00E-15


  -Total Gradient:
     Atom            X                  Y                   Z
    ------   -----------------  -----------------  -----------------
       1        0.000000000000     0.000000000000    -0.125774498659
       2        0.000000000000     0.000000000000     0.125774498659


*** tstop() called on compute078.bc4.acrc.priv at Tue Nov  2 10:38:45 2021
Module time:
	user time   =      39.41 seconds =       0.66 minutes
	system time =       2.48 seconds =       0.04 minutes
	total time  =          7 seconds =       0.12 minutes
Total time:
	user time   =     973.92 seconds =      16.23 minutes
	system time =      23.74 seconds =       0.40 minutes
	total time  =        165 seconds =       2.75 minutes


  ==> Adding ECP gradient terms (computed numerically) <==

  -ECP Gradient:
     Atom            X                  Y                   Z
    ------   -----------------  -----------------  -----------------
       1       -0.000000000000     0.000000000000     0.125644806932
       2       -0.000000000000     0.000000000000    -0.125644806932


  -Total Gradient:
     Atom            X                  Y                   Z
    ------   -----------------  -----------------  -----------------
       1       -0.000000000000     0.000000000000    -0.000129691727
       2       -0.000000000000     0.000000000000     0.000129691727


			-----------------------------------------
			 OPTKING 2.0: for geometry optimizations 
			  - R.A. King,  Bethel University        
			-----------------------------------------
	At level 1: Red. Int., RFO, no backsteps, dynamic trust

	Previous internal coordinate definitions found.
	---Fragment 1 Geometry and Gradient---
	 AG          0.0000000000        0.0000000000        2.4315981095
	 AG          0.0000000000        0.0000000000       -2.4315981095
	            -0.0000000000        0.0000000000       -0.0001296917
	            -0.0000000000        0.0000000000        0.0001296917

	---Fragment 1 Intrafragment Coordinates---
	 - Coordinate -           - BOHR/RAD -       - ANG/DEG -
	 R(1,2)           =         4.863196	       2.573493

	Current energy   :      -294.0557475362

	Energy change for the previous step:
		Projected    :         0.0002374142
		Actual       :         0.0001744475

	Performing BFGS update.
	Previous computed or guess Hessian on step 1.
	Steps to be used in Hessian update: 2 1
	Taking RFO optimization step.
	Going to follow RFO solution 1.
	Using RFO vector 1.
	Norm of target step-size    0.00199
	Projected energy change by RFO approximation:         0.0000017267

	Back-transformation to cartesian coordinates...
	Successfully converged to displaced geometry.

	--- Internal Coordinate Step in ANG or DEG, aJ/ANG or AJ/DEG ---
	 ---------------------------------------------------------------------------
	   Coordinate                Previous        Force       Change         New 
	   ----------                --------       ------       ------       ------
	    1 R(1,2)          =      2.573493     0.001068     0.001054     2.574547
	 ---------------------------------------------------------------------------
	Successfully symmetrized geometry.

  ==> Convergence Check <==

  Measures of convergence in internal coordinates in au.
  Criteria marked as inactive (o), active & met (*), and active & unmet ( ).
  ---------------------------------------------------------------------------------------------
   Step     Total Energy     Delta E     MAX Force     RMS Force      MAX Disp      RMS Disp   
  ---------------------------------------------------------------------------------------------
    Convergence Criteria    1.00e-06 *    3.00e-04 *             o    1.20e-03 *             o
  ---------------------------------------------------------------------------------------------
      3    -294.05574754    1.74e-04      1.30e-04 *    1.30e-04 o    1.99e-03      1.99e-03 o  ~
  ---------------------------------------------------------------------------------------------

	Writing optimization data to binary file.
	Structure for next step:
	Cartesian Geometry (in Angstrom)
	   AG     0.0000000000   0.0000000000   1.2872734988
	   AG     0.0000000000   0.0000000000  -1.2872734988
			--------------------------
			 OPTKING Finished Execution 
			--------------------------

    Structure for next step:
    Molecular point group: d2h
    Full point group: D_inf_h

    Geometry (in Angstrom), charge = 0, multiplicity = 1:

    AG           0.000000000000     0.000000000000     1.287273503840
    AG           0.000000000000     0.000000000000    -1.287273503840


Scratch directory: /tmp/
gradient() will perform analytic gradient computation.

*** tstart() called on compute078.bc4.acrc.priv
*** at Tue Nov  2 10:39:48 2021

   => Loading Basis Set <=

    Name: DEF2-TZVPPD
    Role: ORBITAL
    Keyword: BASIS
    atoms 1-2 entry AG         line  2174 (ECP: line  3646) file /mnt/storage/home/zw18965/.conda/envs/p4env/share/psi4/basis/def2-tzvppd.gbs 

    !!!  WARNING: ECP capability is in beta. Please check occupations closely.  !!!

   => SCAN-D3(BJ): Empirical Dispersion <=

    Grimme's -D3 (BJ-damping) Dispersion Correction
    Grimme S.; Ehrlich S.; Goerigk L. (2011), J. Comput. Chem., 32: 1456
    Parametrisation from:    J.G. Brandenburg, J. E. Bates, J. Sun, J.P. Perdew, Phys. Rev. B 94, 115144, 2016

        s6 =       1.000000
        s8 =       0.000000
        a1 =       0.538000
        a2 =       5.420000


         ---------------------------------------------------------
                                   SCF
               by Justin Turney, Rob Parrish, Andy Simmonett
                          and Daniel G. A. Smith
                              RKS Reference
                       28 Threads, 137329 MiB Core
         ---------------------------------------------------------

  ==> Geometry <==

    Molecular point group: d2h
    Full point group: D_inf_h

    Geometry (in Angstrom), charge = 0, multiplicity = 1:

       Center              X                  Y                   Z               Mass       
    ------------   -----------------  -----------------  -----------------  -----------------
         AG           0.000000000000     0.000000000000     1.287273503840   106.905091600000
         AG           0.000000000000     0.000000000000    -1.287273503840   106.905091600000

  Running in d2h symmetry.

  Rotational constants: A = ************  B =      0.04758  C =      0.04758 [cm^-1]
  Rotational constants: A = ************  B =   1426.41913  C =   1426.41913 [MHz]
  Nuclear repulsion =   74.200615674163515

  Charge       = 0
  Multiplicity = 1
  Electrons    = 38
  Nalpha       = 19
  Nbeta        = 19

  ==> Algorithm <==

  SCF Algorithm Type is DF.
  DIIS enabled.
  MOM disabled.
  Fractional occupation disabled.
  Guess Type is READ.
  Energy threshold   = 1.00e-08
  Density threshold  = 1.00e-08
  Integral threshold = 1.00e-12

  ==> Primary Basis <==

  Basis Set: DEF2-TZVPPD
    Blend: DEF2-TZVPPD
    Number of shells: 32
    Number of basis functions: 112
    Number of Cartesian functions: 142
    Spherical Harmonics?: true
    Max angular momentum: 4

  Core potential: DEF2-TZVPPD
    Number of shells: 8
    Number of ECP primitives: 28
    Number of ECP core electrons: 56
    Max angular momentum: 3

  ==> DFT Potential <==

   => Composite Functional: SCAN-D3BJ <= 

    SCAN Meta-GGA XC Functional
(10.1103/PhysRevLett.115.036402)
    J. Sun, A. Ruzsinszky, J. P. Perdew  Phys. Rev. Lett. 115, 036402, 2015


    Deriv               =              1
    GGA                 =           TRUE
    Meta                =           TRUE

    Exchange Hybrid     =          FALSE
    MP2 Hybrid          =          FALSE

   => Exchange Functionals <=

    1.0000   XC_MGGA_X_SCAN

   => Correlation Functionals <=

    1.0000   XC_MGGA_C_SCAN

   => LibXC Density Thresholds  <==

    XC_MGGA_C_SCAN:  1.00E-15 
    XC_MGGA_X_SCAN:  1.00E-15 

   => Molecular Quadrature <=

    Radial Scheme          =       TREUTLER
    Pruning Scheme         =           NONE
    Nuclear Scheme         =       TREUTLER

    BS radius alpha        =              1
    Pruning alpha          =              1
    Radial Points          =             75
    Spherical Points       =            302
    Total Points           =          41812
    Total Blocks           =            414
    Max Points             =            252
    Max Functions          =            110
    Weights Tolerance      =       1.00E-15

   => Loading Basis Set <=

    Name: (DEF2-TZVPPD AUX)
    Role: JKFIT
    Keyword: DF_BASIS_SCF
    atoms 1-2 entry AG         line  4364 file /mnt/storage/home/zw18965/.conda/envs/p4env/share/psi4/basis/def2-universal-jkfit.gbs 

   => Loading Basis Set <=

    Name: DEF2-TZVPPD
    Role: ORBITAL
    Keyword: BASIS
    atoms 1-2 entry AG         line  2174 (ECP: line  3646) file /mnt/storage/home/zw18965/.conda/envs/p4env/share/psi4/basis/def2-tzvppd.gbs 

    !!!  WARNING: ECP capability is in beta. Please check occupations closely.  !!!

  Reading orbitals from file /tmp/Ag02N0.default.30037.180.npy, no projection.

  ==> Integral Setup <==

  DFHelper Memory: AOs need 0.055 GiB; user supplied 100.335 GiB. Using in-core AOs.

  ==> MemDFJK: Density-Fitted J/K Matrices <==

    J tasked:                   Yes
    K tasked:                    No
    wK tasked:                   No
    OpenMP threads:              28
    Memory [MiB]:            102743
    Algorithm:                 Core
    Schwarz Cutoff:           1E-12
    Mask sparsity (%):       1.1798
    Fitting Condition:        1E-10

   => Auxiliary Basis Set <=

  Basis Set: (DEF2-TZVPPD AUX)
    Blend: DEF2-UNIVERSAL-JKFIT
    Number of shells: 98
    Number of basis functions: 510
    Number of Cartesian functions: 768
    Spherical Harmonics?: true
    Max angular momentum: 6

  Cached 100.0% of DFT collocation blocks in 0.247 [GiB].

  Minimum eigenvalue in the overlap matrix is 9.1256045731E-03.
  Reciprocal condition number of the overlap matrix is 2.3548450635E-03.
    Using symmetric orthogonalization.

  ==> Pre-Iterations <==

  SCF Guess: Orbitals guess was supplied from a previous computation.

   -------------------------------------------------------
    Irrep   Nso     Nmo     Nalpha   Nbeta   Ndocc  Nsocc
   -------------------------------------------------------
     Ag        23      23       5       5       5       0
     B1g        7       7       1       1       1       0
     B2g       13      13       2       2       2       0
     B3g       13      13       2       2       2       0
     Au         7       7       1       1       1       0
     B1u       23      23       4       4       4       0
     B2u       13      13       2       2       2       0
     B3u       13      13       2       2       2       0
   -------------------------------------------------------
    Total     112     112      19      19      19       0
   -------------------------------------------------------

  ==> Iterations <==

                           Total Energy        Delta E     RMS |[F,P]|

   @DF-RKS iter   0:  -294.05565929514393   -2.94056e+02   3.33627e-05 
   @DF-RKS iter   1:  -294.05573113515754   -7.18400e-05   2.03740e-06 DIIS
   @DF-RKS iter   2:  -294.05573113079248    4.36506e-09   3.91011e-06 DIIS
   @DF-RKS iter   3:  -294.05573113950578   -8.71330e-09   3.62416e-07 DIIS
   @DF-RKS iter   4:  -294.05573113961356   -1.07775e-10   8.54271e-08 DIIS
   @DF-RKS iter   5:  -294.05573113961788   -4.32010e-12   3.22584e-08 DIIS
   @DF-RKS iter   6:  -294.05573113961867   -7.95808e-13   6.49588e-09 DIIS
  Energy and wave function converged.


  ==> Post-Iterations <==

   Electrons on quadrature grid:
      Ntotal   =   37.9999752975 ; deviation = -2.470e-05 

    Orbital Energies [Eh]
    ---------------------

    Doubly Occupied:                                                      

       1Ag    -3.680089     1B1u   -3.679596     2Ag    -2.273025  
       2B1u   -2.267604     1B2u   -2.266140     1B3u   -2.266140  
       1B3g   -2.265627     1B2g   -2.265627     3Ag    -0.309428  
       2B2u   -0.290909     2B3u   -0.290909     4Ag    -0.271257  
       1B1g   -0.271253     3B1u   -0.263826     1Au    -0.263822  
       2B3g   -0.254089     2B2g   -0.254089     4B1u   -0.249058  
       5Ag    -0.196475  

    Virtual:                                                              

       5B1u   -0.110463     3B2u   -0.028490     3B3u   -0.028490  
       6Ag    -0.009268     3B2g    0.039989     3B3g    0.039989  
       6B1u    0.090650     7Ag     0.108878     7B1u    0.158907  
       8Ag     0.179271     4B3u    0.186788     4B2u    0.186788  
       4B2g    0.234871     4B3g    0.234871     8B1u    0.358570  
       9Ag     0.375404     2B1g    0.375414     5B3u    0.407392  
       5B2u    0.407392     2Au     0.469065     9B1u    0.469070  
      10Ag     0.575029     5B3g    0.590156     5B2g    0.590156  
      10B1u    0.714105    11Ag     1.417091     6B2u    1.538188  
       6B3u    1.538188     3B1g    1.579021    12Ag     1.579127  
       7B2u    1.593022     7B3u    1.593022     6B3g    1.594829  
       6B2g    1.594829     3Au     1.604857    11B1u    1.604959  
       7B3g    1.608991     7B2g    1.608991     8B2u    1.609326  
       8B3u    1.609326    12B1u    1.627812    13Ag     1.717769  
       8B3g    1.726044     8B2g    1.726044    13B1u    1.743628  
      14Ag     1.929809    15Ag     2.028506     4B1g    2.028547  
       9B2u    2.055839     9B3u    2.055839    14B1u    2.066787  
       4Au     2.066824     9B3g    2.127989     9B2g    2.127989  
      16Ag     2.148710    15B1u    2.281960    16B1u    2.365784  
      17Ag     4.835127    10B3u    4.836806    10B2u    4.836806  
       5B1g    4.872204    18Ag     4.872663    11B3u    4.882836  
      11B2u    4.882836    10B2g    4.884338    10B3g    4.884338  
       5Au     4.894101    17B1u    4.894561    11B2g    4.971723  
      11B3g    4.971723    18B1u    5.165956    12B2u    5.637735  
      12B3u    5.637735    19Ag     5.639297     6B1g    5.639670  
      20Ag     5.639952     6Au     5.640027    19B1u    5.640304  
      12B3g    5.641320    12B2g    5.641320    13B2u    5.641977  
      13B3u    5.641977    13B3g    5.642026    13B2g    5.642026  
      20B1u    5.644041    21Ag     5.644047     7B1g    5.644881  
       7Au     5.644882    21B1u    5.652285    22Ag    33.440225  
      22B1u   33.687590    23Ag   110.862710    23B1u  110.942185  

    Final Occupation by Irrep:
             Ag   B1g   B2g   B3g    Au   B1u   B2u   B3u 
    DOCC [     5,    1,    2,    2,    1,    4,    2,    2 ]

  @DF-RKS Final Energy:  -294.05573113961867

   => Energetics <=

    Nuclear Repulsion Energy =             74.2006156741635152
    One-Electron Energy =                -671.0505576838027082
    Two-Electron Energy =                 331.1379787602832039
    DFT Exchange-Correlation Energy =     -28.3435660302626573
    Empirical Dispersion Energy =          -0.0002018600000000
    VV10 Nonlocal Energy =                  0.0000000000000000
    Total Energy =                       -294.0557311396186719

Computation Completed


Properties will be evaluated at   0.000000,   0.000000,   0.000000 [a0]

Properties computed using the SCF density matrix

  Nuclear Dipole Moment: [e a0]
     X:     0.0000      Y:     0.0000      Z:     0.0000

  Electronic Dipole Moment: [e a0]
     X:     0.0000      Y:     0.0000      Z:     0.0000

  Dipole Moment: [e a0]
     X:     0.0000      Y:     0.0000      Z:     0.0000     Total:     0.0000

  Dipole Moment: [D]
     X:     0.0000      Y:     0.0000      Z:     0.0000     Total:     0.0000


*** tstop() called on compute078.bc4.acrc.priv at Tue Nov  2 10:39:52 2021
Module time:
	user time   =      41.24 seconds =       0.69 minutes
	system time =       1.78 seconds =       0.03 minutes
	total time  =          4 seconds =       0.07 minutes
Total time:
	user time   =    1367.65 seconds =      22.79 minutes
	system time =      30.58 seconds =       0.51 minutes
	total time  =        232 seconds =       3.87 minutes

*** tstart() called on compute078.bc4.acrc.priv
*** at Tue Nov  2 10:39:52 2021


         ------------------------------------------------------------
                                   SCF GRAD                          
                          Rob Parrish, Justin Turney,                
                       Andy Simmonett, and Alex Sokolov              
         ------------------------------------------------------------

  ==> Geometry <==

    Molecular point group: d2h
    Full point group: D_inf_h

    Geometry (in Angstrom), charge = 0, multiplicity = 1:

       Center              X                  Y                   Z               Mass       
    ------------   -----------------  -----------------  -----------------  -----------------
         AG           0.000000000000     0.000000000000     1.287273503840   106.905091600000
         AG           0.000000000000     0.000000000000    -1.287273503840   106.905091600000

  Nuclear repulsion =   74.200615674163515

  ==> Basis Set <==

  Basis Set: DEF2-TZVPPD
    Blend: DEF2-TZVPPD
    Number of shells: 32
    Number of basis functions: 112
    Number of Cartesian functions: 142
    Spherical Harmonics?: true
    Max angular momentum: 4

  Core potential: DEF2-TZVPPD
    Number of shells: 8
    Number of ECP primitives: 28
    Number of ECP core electrons: 56
    Max angular momentum: 3

  ==> DFJKGrad: Density-Fitted SCF Gradients <==

    Gradient:                    1
    J tasked:                  Yes
    K tasked:                   No
    wK tasked:                  No
    OpenMP threads:             28
    Integrals threads:          28
    Memory [MiB]:           102996
    Schwarz Cutoff:          1E-12
    Fitting Condition:       1E-10

   => Auxiliary Basis Set <=

  Basis Set: (DEF2-TZVPPD AUX)
    Blend: DEF2-UNIVERSAL-JKFIT
    Number of shells: 98
    Number of basis functions: 510
    Number of Cartesian functions: 768
    Spherical Harmonics?: true
    Max angular momentum: 6

  ==> DFT Potential <==

   => Composite Functional: SCAN-D3BJ <= 

    SCAN Meta-GGA XC Functional
(10.1103/PhysRevLett.115.036402)
    J. Sun, A. Ruzsinszky, J. P. Perdew  Phys. Rev. Lett. 115, 036402, 2015


    Deriv               =              1
    GGA                 =           TRUE
    Meta                =           TRUE

    Exchange Hybrid     =          FALSE
    MP2 Hybrid          =          FALSE

   => Exchange Functionals <=

    1.0000   XC_MGGA_X_SCAN

   => Correlation Functionals <=

    1.0000   XC_MGGA_C_SCAN

   => LibXC Density Thresholds  <==

    XC_MGGA_C_SCAN:  1.00E-15 
    XC_MGGA_X_SCAN:  1.00E-15 

   => Molecular Quadrature <=

    Radial Scheme          =       TREUTLER
    Pruning Scheme         =           NONE
    Nuclear Scheme         =       TREUTLER

    BS radius alpha        =              1
    Pruning alpha          =              1
    Radial Points          =             75
    Spherical Points       =            302
    Total Points           =          41812
    Total Blocks           =            414
    Max Points             =            252
    Max Functions          =            110
    Weights Tolerance      =       1.00E-15


  -Total Gradient:
     Atom            X                  Y                   Z
    ------   -----------------  -----------------  -----------------
       1        0.000000000000     0.000000000000    -0.125427007850
       2        0.000000000000     0.000000000000     0.125427007850


*** tstop() called on compute078.bc4.acrc.priv at Tue Nov  2 10:39:58 2021
Module time:
	user time   =      38.29 seconds =       0.64 minutes
	system time =       1.38 seconds =       0.02 minutes
	total time  =          6 seconds =       0.10 minutes
Total time:
	user time   =    1408.83 seconds =      23.48 minutes
	system time =      32.10 seconds =       0.54 minutes
	total time  =        238 seconds =       3.97 minutes


  ==> Adding ECP gradient terms (computed numerically) <==

  -ECP Gradient:
     Atom            X                  Y                   Z
    ------   -----------------  -----------------  -----------------
       1        0.000000000000     0.000000000000     0.125415652071
       2        0.000000000000     0.000000000000    -0.125415652071


  -Total Gradient:
     Atom            X                  Y                   Z
    ------   -----------------  -----------------  -----------------
       1        0.000000000000     0.000000000000    -0.000011355779
       2        0.000000000000     0.000000000000     0.000011355779


			-----------------------------------------
			 OPTKING 2.0: for geometry optimizations 
			  - R.A. King,  Bethel University        
			-----------------------------------------
	At level 1: Red. Int., RFO, no backsteps, dynamic trust

	Previous internal coordinate definitions found.
	---Fragment 1 Geometry and Gradient---
	 AG          0.0000000000        0.0000000000        2.4325943708
	 AG          0.0000000000        0.0000000000       -2.4325943708
	             0.0000000000        0.0000000000       -0.0000113558
	             0.0000000000        0.0000000000        0.0000113558

	---Fragment 1 Intrafragment Coordinates---
	 - Coordinate -           - BOHR/RAD -       - ANG/DEG -
	 R(1,2)           =         4.865189	       2.574547

	Current energy   :      -294.0557311396

	Energy change for the previous step:
		Projected    :         0.0000017267
		Actual       :         0.0000163966

	Performing BFGS update.
	Previous computed or guess Hessian on step 1.
	Steps to be used in Hessian update: 3 2
	Taking RFO optimization step.
	Going to follow RFO solution 1.
	Using RFO vector 1.
	Norm of target step-size    0.00019
	Projected energy change by RFO approximation:         0.0000000153

	Back-transformation to cartesian coordinates...
	Successfully converged to displaced geometry.

	--- Internal Coordinate Step in ANG or DEG, aJ/ANG or AJ/DEG ---
	 ---------------------------------------------------------------------------
	   Coordinate                Previous        Force       Change         New 
	   ----------                --------       ------       ------       ------
	    1 R(1,2)          =      2.574547     0.000094     0.000099     2.574646
	 ---------------------------------------------------------------------------
	Successfully symmetrized geometry.

  ==> Convergence Check <==

  Measures of convergence in internal coordinates in au.
  Criteria marked as inactive (o), active & met (*), and active & unmet ( ).
  ---------------------------------------------------------------------------------------------
   Step     Total Energy     Delta E     MAX Force     RMS Force      MAX Disp      RMS Disp   
  ---------------------------------------------------------------------------------------------
    Convergence Criteria    1.00e-06 *    3.00e-04 *             o    1.20e-03 *             o
  ---------------------------------------------------------------------------------------------
      4    -294.05573114    1.64e-05      1.14e-05 *    1.14e-05 o    1.87e-04 *    1.87e-04 o  ~
  ---------------------------------------------------------------------------------------------


  **** Optimization is complete! (in 4 steps) ****

  ==> Optimization Summary <==

  Measures of convergence in internal coordinates in au.
  --------------------------------------------------------------------------------------------------------------- ~
   Step         Total Energy             Delta E       MAX Force       RMS Force        MAX Disp        RMS Disp  ~
  --------------------------------------------------------------------------------------------------------------- ~
      1    -294.056238703854   -294.056238703854      0.00626133      0.00626133      0.07079546      0.07079546  ~
      2    -294.055921983649      0.000316720205      0.00155650      0.00155650      0.02340854      0.02340854  ~
      3    -294.055747536179      0.000174447470      0.00012969      0.00012969      0.00199252      0.00199252  ~
      4    -294.055731139619      0.000016396561      0.00001136      0.00001136      0.00018668      0.00018668  ~
  --------------------------------------------------------------------------------------------------------------- ~

	Writing optimization data to binary file.
	Final energy is   -294.0557311396187
	Final (previous) structure:
[...]
    Spherical Harmonics?: true
    Max angular momentum: 4

  Core potential: DEF2-TZVPPD
    Number of shells: 8
    Number of ECP primitives: 28
    Number of ECP core electrons: 56
    Max angular momentum: 3

  ==> DFT Potential <==

   => Composite Functional: SCAN-D3BJ <= 

    SCAN Meta-GGA XC Functional
(10.1103/PhysRevLett.115.036402)
    J. Sun, A. Ruzsinszky, J. P. Perdew  Phys. Rev. Lett. 115, 036402, 2015


    Deriv               =              1
    GGA                 =           TRUE
    Meta                =           TRUE

    Exchange Hybrid     =          FALSE
    MP2 Hybrid          =          FALSE

   => Exchange Functionals <=

    1.0000   XC_MGGA_X_SCAN

   => Correlation Functionals <=

    1.0000   XC_MGGA_C_SCAN

   => LibXC Density Thresholds  <==

    XC_MGGA_C_SCAN:  1.00E-15 
    XC_MGGA_X_SCAN:  1.00E-15 

   => Molecular Quadrature <=

    Radial Scheme          =       TREUTLER
    Pruning Scheme         =           NONE
    Nuclear Scheme         =       TREUTLER

    BS radius alpha        =              1
    Pruning alpha          =              1
    Radial Points          =             75
    Spherical Points       =            302
    Total Points           =          41816
    Total Blocks           =            412
    Max Points             =            253
    Max Functions          =            110
    Weights Tolerance      =       1.00E-15

   => Loading Basis Set <=

    Name: (DEF2-TZVPPD AUX)
    Role: JKFIT
    Keyword: DF_BASIS_SCF
    atoms 1-2 entry AG         line  4364 file /mnt/storage/home/zw18965/.conda/envs/p4env/share/psi4/basis/def2-universal-jkfit.gbs 

  ==> Integral Setup <==

  DFHelper Memory: AOs need 0.055 GiB; user supplied 100.335 GiB. Using in-core AOs.

  ==> MemDFJK: Density-Fitted J/K Matrices <==

    J tasked:                   Yes
    K tasked:                    No
    wK tasked:                   No
    OpenMP threads:              28
    Memory [MiB]:            102743
    Algorithm:                 Core
    Schwarz Cutoff:           1E-12
    Mask sparsity (%):       1.1798
    Fitting Condition:        1E-10

   => Auxiliary Basis Set <=

  Basis Set: (DEF2-TZVPPD AUX)
    Blend: DEF2-UNIVERSAL-JKFIT
    Number of shells: 98
    Number of basis functions: 510
    Number of Cartesian functions: 768
    Spherical Harmonics?: true
    Max angular momentum: 6

  Cached 100.0% of DFT collocation blocks in 0.248 [GiB].

  Minimum eigenvalue in the overlap matrix is 9.1307068821E-03.
  Reciprocal condition number of the overlap matrix is 2.3562899086E-03.
    Using symmetric orthogonalization.

  ==> Pre-Iterations <==

  SCF Guess: Superposition of Atomic Densities via on-the-fly atomic UHF (no occupation information).

   -------------------------
    Irrep   Nso     Nmo    
   -------------------------
     Ag        23      23 
     B1g        7       7 
     B2g       13      13 
     B3g       13      13 
     Au         7       7 
     B1u       23      23 
     B2u       13      13 
     B3u       13      13 
   -------------------------
    Total     112     112
   -------------------------

  ==> Iterations <==

                           Total Energy        Delta E     RMS |[F,P]|

   @DF-RKS iter SAD:  -293.56352412229302   -2.93564e+02   0.00000e+00 
   @DF-RKS iter   1:  -294.02694074455741   -4.63417e-01   6.31508e-03 DIIS
   @DF-RKS iter   2:  -293.99255206859686    3.43887e-02   1.02632e-02 DIIS
   @DF-RKS iter   3:  -294.05534283563708   -6.27908e-02   8.38005e-04 DIIS
   @DF-RKS iter   4:  -294.05560953404330   -2.66698e-04   4.61629e-04 DIIS
   @DF-RKS iter   5:  -294.05572490645682   -1.15372e-04   2.70177e-05 DIIS
   @DF-RKS iter   6:  -294.05572543844386   -5.31987e-07   5.19284e-06 DIIS
   @DF-RKS iter   7:  -294.05572545689898   -1.84551e-08   6.07967e-07 DIIS
   @DF-RKS iter   8:  -294.05572545713289   -2.33911e-10   5.47423e-08 DIIS
   @DF-RKS iter   9:  -294.05572545713494   -2.04636e-12   4.52649e-09 DIIS
  Energy and wave function converged.


  ==> Post-Iterations <==

   Electrons on quadrature grid:
      Ntotal   =   37.9999753215 ; deviation = -2.468e-05 

    Orbital Energies [Eh]
    ---------------------

    Doubly Occupied:                                                      

       1Ag    -3.680085     1B1u   -3.679592     2Ag    -2.273015  
       2B1u   -2.267602     1B2u   -2.266137     1B3u   -2.266137  
       1B3g   -2.265624     1B2g   -2.265624     3Ag    -0.309399  
       2B2u   -0.290889     2B3u   -0.290889     4Ag    -0.271252  
       1B1g   -0.271248     3B1u   -0.263828     1Au    -0.263823  
       2B3g   -0.254097     2B2g   -0.254097     4B1u   -0.249068  
       5Ag    -0.196467  

    Virtual:                                                              

       5B1u   -0.110473     3B2u   -0.028487     3B3u   -0.028487  
       6Ag    -0.009276     3B2g    0.039979     3B3g    0.039979  
       6B1u    0.090638     7Ag     0.108875     7B1u    0.158908  
       8Ag     0.179266     4B3u    0.186794     4B2u    0.186794  
       4B2g    0.234860     4B3g    0.234860     8B1u    0.358509  
       9Ag     0.375411     2B1g    0.375422     5B2u    0.407356  
       5B3u    0.407356     2Au     0.469050     9B1u    0.469055  
      10Ag     0.574999     5B2g    0.590139     5B3g    0.590139  
      10B1u    0.714071    11Ag     1.417326     6B2u    1.538264  
       6B3u    1.538264     3B1g    1.579042    12Ag     1.579149  
       7B3u    1.593023     7B2u    1.593023     6B2g    1.594827  
       6B3g    1.594827     3Au     1.604836    11B1u    1.604939  
       7B3g    1.608951     7B2g    1.608951     8B2u    1.609327  
       8B3u    1.609327    12B1u    1.627791    13Ag     1.717760  
       8B3g    1.725970     8B2g    1.725970    13B1u    1.743523  
      14Ag     1.929729    15Ag     2.028506     4B1g    2.028548  
       9B2u    2.055892     9B3u    2.055892    14B1u    2.066781  
       4Au     2.066818     9B3g    2.127945     9B2g    2.127945  
      16Ag     2.148787    15B1u    2.281730    16B1u    2.365712  
      17Ag     4.835123    10B2u    4.836874    10B3u    4.836874  
       5B1g    4.872226    18Ag     4.872684    11B2u    4.882840  
      11B3u    4.882840    10B3g    4.884339    10B2g    4.884339  
       5Au     4.894083    17B1u    4.894543    11B3g    4.971622  
      11B2g    4.971622    18B1u    5.165756    12B2u    5.637742  
      12B3u    5.637742    19Ag     5.639300     6B1g    5.639675  
      20Ag     5.639958     6Au     5.640030    19B1u    5.640309  
      12B3g    5.641319    12B2g    5.641319    13B3u    5.641979  
      13B2u    5.641979    13B2g    5.642029    13B3g    5.642029  
      20B1u    5.644042    21Ag     5.644048     7B1g    5.644882  
       7Au     5.644882    21B1u    5.652255    22Ag    33.440166  
      22B1u   33.687519    23Ag   110.862694    23B1u  110.942165  

    Final Occupation by Irrep:
             Ag   B1g   B2g   B3g    Au   B1u   B2u   B3u 
    DOCC [     5,    1,    2,    2,    1,    4,    2,    2 ]

  @DF-RKS Final Energy:  -294.05572545713494

   => Energetics <=

    Nuclear Repulsion Energy =             74.1901869164130829
    One-Electron Energy =                -671.0298873409091129
    Two-Electron Energy =                 331.1277072287588226
    DFT Exchange-Correlation Energy =     -28.3435304013976683
    Empirical Dispersion Energy =          -0.0002018600000000
    VV10 Nonlocal Energy =                  0.0000000000000000
    Total Energy =                       -294.0557254571349404

Computation Completed


Properties will be evaluated at   0.000000,   0.000000,   0.000000 [a0]

Properties computed using the SCF density matrix

  Nuclear Dipole Moment: [e a0]
     X:     0.0000      Y:     0.0000      Z:    -0.0000

  Electronic Dipole Moment: [e a0]
     X:     0.0000      Y:     0.0000      Z:     0.0000

  Dipole Moment: [e a0]
     X:     0.0000      Y:     0.0000      Z:    -0.0000     Total:     0.0000

  Dipole Moment: [D]
     X:     0.0000      Y:     0.0000      Z:    -0.0000     Total:     0.0000


*** tstop() called on compute078.bc4.acrc.priv at Tue Nov  2 10:44:55 2021
Module time:
	user time   =      54.06 seconds =       0.90 minutes
	system time =       1.69 seconds =       0.03 minutes
	total time  =          5 seconds =       0.08 minutes
Total time:
	user time   =    3155.17 seconds =      52.59 minutes
	system time =      67.04 seconds =       1.12 minutes
	total time  =        535 seconds =       8.92 minutes

*** tstart() called on compute078.bc4.acrc.priv
*** at Tue Nov  2 10:44:55 2021


         ------------------------------------------------------------
                                   SCF GRAD                          
                          Rob Parrish, Justin Turney,                
                       Andy Simmonett, and Alex Sokolov              
         ------------------------------------------------------------

  ==> Geometry <==

    Molecular point group: d2h
    Full point group: D_inf_h

    Geometry (in Angstrom), charge = 0, multiplicity = 1:

       Center              X                  Y                   Z               Mass       
    ------------   -----------------  -----------------  -----------------  -----------------
         AG           0.000000000000     0.000000000000     1.287454453155   106.905091600000
         AG           0.000000000000     0.000000000000    -1.287454453155   106.905091600000

  Nuclear repulsion =   74.190186916413083

  ==> Basis Set <==

  Basis Set: DEF2-TZVPPD
    Blend: DEF2-TZVPPD
    Number of shells: 32
    Number of basis functions: 112
    Number of Cartesian functions: 142
    Spherical Harmonics?: true
    Max angular momentum: 4

  Core potential: DEF2-TZVPPD
    Number of shells: 8
    Number of ECP primitives: 28
    Number of ECP core electrons: 56
    Max angular momentum: 3

  ==> DFJKGrad: Density-Fitted SCF Gradients <==

    Gradient:                    1
    J tasked:                  Yes
    K tasked:                   No
    wK tasked:                  No
    OpenMP threads:             28
    Integrals threads:          28
    Memory [MiB]:           102996
    Schwarz Cutoff:          1E-12
    Fitting Condition:       1E-10

   => Auxiliary Basis Set <=

  Basis Set: (DEF2-TZVPPD AUX)
    Blend: DEF2-UNIVERSAL-JKFIT
    Number of shells: 98
    Number of basis functions: 510
    Number of Cartesian functions: 768
    Spherical Harmonics?: true
    Max angular momentum: 6

  ==> DFT Potential <==

   => Composite Functional: SCAN-D3BJ <= 

    SCAN Meta-GGA XC Functional
(10.1103/PhysRevLett.115.036402)
    J. Sun, A. Ruzsinszky, J. P. Perdew  Phys. Rev. Lett. 115, 036402, 2015


    Deriv               =              1
    GGA                 =           TRUE
    Meta                =           TRUE

    Exchange Hybrid     =          FALSE
    MP2 Hybrid          =          FALSE

   => Exchange Functionals <=

    1.0000   XC_MGGA_X_SCAN

   => Correlation Functionals <=

    1.0000   XC_MGGA_C_SCAN

   => LibXC Density Thresholds  <==

    XC_MGGA_C_SCAN:  1.00E-15 
    XC_MGGA_X_SCAN:  1.00E-15 

   => Molecular Quadrature <=

    Radial Scheme          =       TREUTLER
    Pruning Scheme         =           NONE
    Nuclear Scheme         =       TREUTLER

    BS radius alpha        =              1
    Pruning alpha          =              1
    Radial Points          =             75
    Spherical Points       =            302
    Total Points           =          41816
    Total Blocks           =            412
    Max Points             =            253
    Max Functions          =            110
    Weights Tolerance      =       1.00E-15


  -Total Gradient:
     Atom            X                  Y                   Z
    ------   -----------------  -----------------  -----------------
       1        0.000000000000     0.000000000000    -0.125307936908
       2        0.000000000000     0.000000000000     0.125307936908


*** tstop() called on compute078.bc4.acrc.priv at Tue Nov  2 10:45:02 2021
Module time:
	user time   =      38.45 seconds =       0.64 minutes
	system time =       2.69 seconds =       0.04 minutes
	total time  =          7 seconds =       0.12 minutes
Total time:
	user time   =    3196.62 seconds =      53.28 minutes
	system time =      69.85 seconds =       1.16 minutes
	total time  =        542 seconds =       9.03 minutes


  ==> Adding ECP gradient terms (computed numerically) <==

  -ECP Gradient:
     Atom            X                  Y                   Z
    ------   -----------------  -----------------  -----------------
       1        0.000000000000     0.000000000000     0.125337085416
       2        0.000000000000     0.000000000000    -0.125337085416


  -Total Gradient:
     Atom            X                  Y                   Z
    ------   -----------------  -----------------  -----------------
       1        0.000000000000     0.000000000000     0.000029148507
       2        0.000000000000     0.000000000000    -0.000029148507


         ----------------------------------------------------------
                                   FINDIF
                     R. A. King and Jonathon Misiewicz
         ---------------------------------------------------------

  Computing second-derivative from gradients using projected, 
  symmetry-adapted, cartesian coordinates.

  3 gradients passed in, including the reference geometry.
  Generating complete list of displacements from unique ones.


-------------------------------------------------------------


  ==> Harmonic Vibrational Analysis <==

  non-mass-weighted Hessian:       Symmetric? True   Hermitian? True   Lin Dep Dim?  5 (0)
  projection of translations (True) and rotations (True) removed 5 degrees of freedom (5)
  total projector:                 Symmetric? True   Hermitian? True   Lin Dep Dim?  5 (5)
  mass-weighted Hessian:           Symmetric? True   Hermitian? True   Lin Dep Dim?  5 (0)
  pre-proj  low-frequency mode:    0.0000  [cm^-1]
  pre-proj  low-frequency mode:    0.0000  [cm^-1]
  pre-proj  low-frequency mode:    0.0000  [cm^-1]
  pre-proj  low-frequency mode:    0.0000  [cm^-1]
  pre-proj  low-frequency mode:    0.0000  [cm^-1]
  pre-proj  all modes:['0.0000' '0.0000' '0.0000' '0.0000' '0.0000' '171.1719']
  projected mass-weighted Hessian: Symmetric? True   Hermitian? True   Lin Dep Dim?  5 (5)
  post-proj low-frequency mode:    0.0000  [cm^-1] (TR)
  post-proj low-frequency mode:    0.0000  [cm^-1] (TR)
  post-proj low-frequency mode:    0.0000  [cm^-1] (TR)
  post-proj low-frequency mode:    0.0000  [cm^-1] (TR)
  post-proj low-frequency mode:    0.0000  [cm^-1] (TR)
  post-proj  all modes:['0.0000' '0.0000' '0.0000' '0.0000' '0.0000' '171.1719']

  Vibration                       6           
  Freq [cm^-1]                 171.1719       
  Irrep                           Ag          
  Reduced mass [u]             106.9051       
  Force const [mDyne/A]         1.8455        
  Turning point v=0 [a0]        0.0811        
  RMS dev v=0 [a0 u^1/2]        0.5930        
  Char temp [K]                246.2782       
  ----------------------------------------------------------------------------------
      1   AG               0.00  0.00  0.71   
      2   AG               0.00  0.00 -0.71   

  ==> Thermochemistry Components <==

  Entropy, S
    Electronic S            0.000 [cal/(mol K)]        0.000 [J/(mol K)]       0.00000000 [mEh/K] (multiplicity = 1)
    Translational S        41.983 [cal/(mol K)]      175.658 [J/(mol K)]       0.06690442 [mEh/K] (mol. weight = 213.8102 [u], P = 101325.00 [Pa])
    Rotational S           17.261 [cal/(mol K)]       72.219 [J/(mol K)]       0.02750690 [mEh/K] (symmetry no. = 2)
    Vibrational S           2.423 [cal/(mol K)]       10.136 [J/(mol K)]       0.00386062 [mEh/K]
  Total S                  61.667 [cal/(mol K)]      258.013 [J/(mol K)]       0.09827194 [mEh/K]
  Correction S              0.000 [cal/(mol K)]        0.000 [J/(mol K)]       0.00000000 [mEh/K]

  Constant volume heat capacity, Cv
    Electronic Cv           0.000 [cal/(mol K)]        0.000 [J/(mol K)]       0.00000000 [mEh/K]
    Translational Cv        2.981 [cal/(mol K)]       12.472 [J/(mol K)]       0.00475022 [mEh/K]
    Rotational Cv           1.987 [cal/(mol K)]        8.314 [J/(mol K)]       0.00316681 [mEh/K]
    Vibrational Cv          1.878 [cal/(mol K)]        7.857 [J/(mol K)]       0.00299273 [mEh/K]
  Total Cv                  6.846 [cal/(mol K)]       28.644 [J/(mol K)]       0.01090975 [mEh/K]
  Correction Cv             0.000 [cal/(mol K)]        0.000 [J/(mol K)]       0.00000000 [mEh/K]

  Constant pressure heat capacity, Cp
    Electronic Cp           0.000 [cal/(mol K)]        0.000 [J/(mol K)]       0.00000000 [mEh/K]
    Translational Cp        4.968 [cal/(mol K)]       20.786 [J/(mol K)]       0.00791703 [mEh/K]
    Rotational Cp           1.987 [cal/(mol K)]        8.314 [J/(mol K)]       0.00316681 [mEh/K]
    Vibrational Cp          1.878 [cal/(mol K)]        7.857 [J/(mol K)]       0.00299273 [mEh/K]
  Total Cp                  8.833 [cal/(mol K)]       36.958 [J/(mol K)]       0.01407657 [mEh/K]
  Correction Cp             0.000 [cal/(mol K)]        0.000 [J/(mol K)]       0.00000000 [mEh/K]

  ==> Thermochemistry Energy Analysis <==

  Raw electronic energy, E0
  Total E0, Electronic energy at well bottom at 0 [K]                 -294.05573114 [Eh]

  Zero-point energy, ZPE_vib = Sum_i nu_i / 2
    Electronic ZPE          0.000 [kcal/mol]        0.000 [kJ/mol]       0.00000000 [Eh]
    Translational ZPE       0.000 [kcal/mol]        0.000 [kJ/mol]       0.00000000 [Eh]
    Rotational ZPE          0.000 [kcal/mol]        0.000 [kJ/mol]       0.00000000 [Eh]
    Vibrational ZPE         0.245 [kcal/mol]        1.024 [kJ/mol]       0.00038996 [Eh]          85.586 [cm^-1]
  Correction ZPE            0.245 [kcal/mol]        1.024 [kJ/mol]       0.00038996 [Eh]          85.586 [cm^-1]
  Total ZPE, Electronic energy at 0 [K]                               -294.05534118 [Eh]

  Thermal Energy, E (includes ZPE)
    Electronic E            0.000 [kcal/mol]        0.000 [kJ/mol]       0.00000000 [Eh]
    Translational E         0.889 [kcal/mol]        3.718 [kJ/mol]       0.00141628 [Eh]
    Rotational E            0.592 [kcal/mol]        2.479 [kJ/mol]       0.00094418 [Eh]
    Vibrational E           0.626 [kcal/mol]        2.618 [kJ/mol]       0.00099727 [Eh]
  Correction E              2.107 [kcal/mol]        8.816 [kJ/mol]       0.00335773 [Eh]
  Total E, Electronic energy at  298.15 [K]                           -294.05237341 [Eh]

  Enthalpy, H_trans = E_trans + k_B * T
    Electronic H            0.000 [kcal/mol]        0.000 [kJ/mol]       0.00000000 [Eh]
    Translational H         1.481 [kcal/mol]        6.197 [kJ/mol]       0.00236046 [Eh]
    Rotational H            0.592 [kcal/mol]        2.479 [kJ/mol]       0.00094418 [Eh]
    Vibrational H           0.626 [kcal/mol]        2.618 [kJ/mol]       0.00099727 [Eh]
  Correction H              2.699 [kcal/mol]       11.295 [kJ/mol]       0.00430192 [Eh]
  Total H, Enthalpy at  298.15 [K]                                    -294.05142922 [Eh]

  Gibbs free energy, G = H - T * S
    Electronic G            0.000 [kcal/mol]        0.000 [kJ/mol]       0.00000000 [Eh]
    Translational G       -11.036 [kcal/mol]      -46.175 [kJ/mol]      -0.01758709 [Eh]
    Rotational G           -4.554 [kcal/mol]      -19.053 [kJ/mol]      -0.00725700 [Eh]
    Vibrational G          -0.096 [kcal/mol]       -0.404 [kJ/mol]      -0.00015377 [Eh]
  Correction G            -15.686 [kcal/mol]      -65.632 [kJ/mol]      -0.02499786 [Eh]
  Total G, Free enthalpy at  298.15 [K]                               -294.08072900 [Eh]

    Psi4 stopped on: Tuesday, 02 November 2021 10:46AM
    Psi4 wall time for execution: 0:10:05.87

*** Psi4 exiting successfully. Buy a developer a beer!
