
    -----------------------------------------------------------------------
          Psi4: An Open-Source Ab Initio Electronic Structure Package
                               Psi4 1.4.1 release

                         Git: Rev {HEAD} cd00f19 


    D. G. A. Smith, L. A. Burns, A. C. Simmonett, R. M. Parrish,
    M. C. Schieber, R. Galvelis, P. Kraus, H. Kruse, R. Di Remigio,
    A. Alenaizan, A. M. James, S. Lehtola, J. P. Misiewicz, M. Scheurer,
    R. A. Shaw, J. B. Schriber, Y. Xie, Z. L. Glick, D. A. Sirianni,
    J. S. O'Brien, J. M. Waldrop, A. Kumar, E. G. Hohenstein,
    B. P. Pritchard, B. R. Brooks, H. F. Schaefer III, A. Yu. Sokolov,
    K. Patkowski, A. E. DePrince III, U. Bozkaya, R. A. King,
    F. A. Evangelista, J. M. Turney, T. D. Crawford, C. D. Sherrill,
    J. Chem. Phys. 152(18) 184108 (2020). https://doi.org/10.1063/5.0006002

                            Additional Code Authors
    E. T. Seidl, C. L. Janssen, E. F. Valeev, M. L. Leininger,
    J. F. Gonthier, R. M. Richard, H. R. McAlexander, M. Saitow, X. Wang,
    P. Verma, and M. H. Lechner

             Previous Authors, Complete List of Code Contributors,
                       and Citations for Specific Modules
    https://github.com/psi4/psi4/blob/master/codemeta.json
    https://github.com/psi4/psi4/graphs/contributors
    http://psicode.org/psi4manual/master/introduction.html#citing-psifour

    -----------------------------------------------------------------------


    Psi4 started on: Friday, 05 November 2021 08:41AM

    Process ID: 15236
    Host:       compute347.bc4.acrc.priv
    PSIDATADIR: /mnt/storage/home/zw18965/.conda/envs/p4env/share/psi4
    Memory:     500.0 MiB
    Threads:    28
    
  ==> Input File <==

--------------------------------------------------------------------------
memory 120 GB

molecule {
0 2
Ag       0.000000    1.533951   -0.000000 
Ag       1.328441   -0.766976    0.000000 
Ag      -1.328441   -0.766976   -0.000000 
 }

set reference uks
set dynamic_level 1
set basis Def2-TZVPPD

optimize("SCAN-D3BJ")
frequencies("SCAN-D3BJ")
--------------------------------------------------------------------------

  Memory set to 111.759 GiB by Python driver.

Scratch directory: /tmp/
gradient() will perform analytic gradient computation.

*** tstart() called on compute347.bc4.acrc.priv
*** at Fri Nov  5 08:41:20 2021

   => Loading Basis Set <=

    Name: DEF2-TZVPPD
    Role: ORBITAL
    Keyword: BASIS
    atoms 1-3 entry AG         line  2174 (ECP: line  3646) file /mnt/storage/home/zw18965/.conda/envs/p4env/share/psi4/basis/def2-tzvppd.gbs 

    !!!  WARNING: ECP capability is in beta. Please check occupations closely.  !!!

   => SCAN-D3(BJ): Empirical Dispersion <=

    Grimme's -D3 (BJ-damping) Dispersion Correction
    Grimme S.; Ehrlich S.; Goerigk L. (2011), J. Comput. Chem., 32: 1456
    Parametrisation from:    J.G. Brandenburg, J. E. Bates, J. Sun, J.P. Perdew, Phys. Rev. B 94, 115144, 2016

        s6 =       1.000000
        s8 =       0.000000
        a1 =       0.538000
        a2 =       5.420000


         ---------------------------------------------------------
                                   SCF
               by Justin Turney, Rob Parrish, Andy Simmonett
                          and Daniel G. A. Smith
                              UKS Reference
                       28 Threads, 114440 MiB Core
         ---------------------------------------------------------

  ==> Geometry <==

    Molecular point group: c2v
    Full point group: C2v

    Geometry (in Angstrom), charge = 0, multiplicity = 2:

       Center              X                  Y                   Z               Mass       
    ------------   -----------------  -----------------  -----------------  -----------------
         AG           0.000000000000    -0.000000000000     1.533951333333   106.905091600000
         AG           1.328441000000     0.000000000000    -0.766975666667   106.905091600000
         AG          -1.328441000000    -0.000000000000    -0.766975666667   106.905091600000

  Running in c2v symmetry.

  Rotational constants: A =      0.04468  B =      0.04468  C =      0.02234 [cm^-1]
  Rotational constants: A =   1339.38178  B =   1339.38143  C =    669.69080 [MHz]
  Nuclear repulsion =  215.703579372583732

  Charge       = 0
  Multiplicity = 2
  Electrons    = 57
  Nalpha       = 29
  Nbeta        = 28

  ==> Algorithm <==

  SCF Algorithm Type is DF.
  DIIS enabled.
  MOM disabled.
  Fractional occupation disabled.
  Guess Type is SAD.
  Energy threshold   = 1.00e-08
  Density threshold  = 1.00e-08
  Integral threshold = 1.00e-12

  ==> Primary Basis <==

  Basis Set: DEF2-TZVPPD
    Blend: DEF2-TZVPPD
    Number of shells: 48
    Number of basis functions: 168
    Number of Cartesian functions: 213
    Spherical Harmonics?: true
    Max angular momentum: 4

  Core potential: DEF2-TZVPPD
    Number of shells: 12
    Number of ECP primitives: 42
    Number of ECP core electrons: 84
    Max angular momentum: 3

  ==> DFT Potential <==

   => Composite Functional: SCAN-D3BJ <= 

    SCAN Meta-GGA XC Functional
(10.1103/PhysRevLett.115.036402)
    J. Sun, A. Ruzsinszky, J. P. Perdew  Phys. Rev. Lett. 115, 036402, 2015


    Deriv               =              1
    GGA                 =           TRUE
    Meta                =           TRUE

    Exchange Hybrid     =          FALSE
    MP2 Hybrid          =          FALSE

   => Exchange Functionals <=

    1.0000   XC_MGGA_X_SCAN

   => Correlation Functionals <=

    1.0000   XC_MGGA_C_SCAN

   => LibXC Density Thresholds  <==

    XC_MGGA_C_SCAN:  1.00E-15 
    XC_MGGA_X_SCAN:  1.00E-15 

   => Molecular Quadrature <=

    Radial Scheme          =       TREUTLER
    Pruning Scheme         =           NONE
    Nuclear Scheme         =       TREUTLER

    BS radius alpha        =              1
    Pruning alpha          =              1
    Radial Points          =             75
    Spherical Points       =            302
    Total Points           =          62882
    Total Blocks           =            592
    Max Points             =            256
    Max Functions          =            165
    Weights Tolerance      =       1.00E-15

   => Loading Basis Set <=

    Name: (DEF2-TZVPPD AUX)
    Role: JKFIT
    Keyword: DF_BASIS_SCF
    atoms 1-3 entry AG         line  4364 file /mnt/storage/home/zw18965/.conda/envs/p4env/share/psi4/basis/def2-universal-jkfit.gbs 

  ==> Integral Setup <==

  DFHelper Memory: AOs need 0.177 GiB; user supplied 83.305 GiB. Using in-core AOs.

  ==> MemDFJK: Density-Fitted J/K Matrices <==

    J tasked:                   Yes
    K tasked:                    No
    wK tasked:                   No
    OpenMP threads:              28
    Memory [MiB]:             85304
    Algorithm:                 Core
    Schwarz Cutoff:           1E-12
    Mask sparsity (%):       1.2472
    Fitting Condition:        1E-10

   => Auxiliary Basis Set <=

  Basis Set: (DEF2-TZVPPD AUX)
    Blend: DEF2-UNIVERSAL-JKFIT
    Number of shells: 147
    Number of basis functions: 765
    Number of Cartesian functions: 1152
    Spherical Harmonics?: true
    Max angular momentum: 6

  Cached 100.0% of DFT collocation blocks in 0.514 [GiB].

  Minimum eigenvalue in the overlap matrix is 2.4383033260E-03.
  Reciprocal condition number of the overlap matrix is 5.1180471977E-04.
    Using symmetric orthogonalization.

  ==> Pre-Iterations <==

  SCF Guess: Superposition of Atomic Densities via on-the-fly atomic UHF (no occupation information).

   -------------------------
    Irrep   Nso     Nmo    
   -------------------------
     A1        59      59 
     A2        27      27 
     B1        49      49 
     B2        33      33 
   -------------------------
    Total     168     168
   -------------------------

  ==> Iterations <==

                           Total Energy        Delta E     RMS |[F,P]|

   @DF-UKS iter SAD:  -440.45849116738214   -4.40458e+02   0.00000e+00 
    Occupation by irrep:
             A1    A2    B1    B2 
    DOCC [    11,    4,    8,    5 ]
    SOCC [     0,    0,    1,    0 ]

   @DF-UKS iter   1:  -441.02836359709408   -5.69872e-01   4.55773e-03 DIIS
    Occupation by irrep:
             A1    A2    B1    B2 
    DOCC [    11,    4,    8,    5 ]
    SOCC [     1,    0,    0,    0 ]

   @DF-UKS iter   2:  -440.88672794186220    1.41636e-01   8.40605e-03 DIIS
   @DF-UKS iter   3:  -441.06909098128074   -1.82363e-01   2.30331e-03 DIIS
   @DF-UKS iter   4:  -441.09066046961141   -2.15695e-02   5.39338e-04 DIIS
   @DF-UKS iter   5:  -441.09131783450755   -6.57365e-04   2.12821e-04 DIIS
   @DF-UKS iter   6:  -441.09145277068376   -1.34936e-04   9.46071e-05 DIIS
   @DF-UKS iter   7:  -441.09148395661634   -3.11859e-05   4.75218e-05 DIIS
   @DF-UKS iter   8:  -441.09149324577299   -9.28916e-06   1.75295e-05 DIIS
   @DF-UKS iter   9:  -441.09149453510202   -1.28933e-06   3.61644e-06 DIIS
   @DF-UKS iter  10:  -441.09149461105733   -7.59553e-08   1.00981e-06 DIIS
   @DF-UKS iter  11:  -441.09149461654977   -5.49244e-09   8.02741e-07 DIIS
   @DF-UKS iter  12:  -441.09149461928041   -2.73064e-09   1.24080e-07 DIIS
   @DF-UKS iter  13:  -441.09149461945788   -1.77465e-10   4.46167e-08 DIIS
   @DF-UKS iter  14:  -441.09149461946947   -1.15961e-11   2.96542e-08 DIIS
   @DF-UKS iter  15:  -441.09149461947243   -2.95586e-12   7.16182e-09 DIIS
  Energy and wave function converged.


  ==> Post-Iterations <==

   Electrons on quadrature grid:
      Nalpha   =   28.9999905253 ; deviation = -9.475e-06
      Nbeta    =   27.9999897117 ; deviation = -1.029e-05
      Ntotal   =   56.9999802370 ; deviation = -1.976e-05 

   @Spin Contamination Metric:   1.568143084E-02
   @S^2 Expected:                7.500000000E-01
   @S^2 Observed:                7.656814308E-01
   @S   Expected:                5.000000000E-01
   @S   Observed:                5.000000000E-01

    Orbital Energies [Eh]
    ---------------------

    Alpha Occupied:                                                       

       1A1    -3.701856     1B1    -3.701529     2A1    -3.684337  
       3A1    -2.293827     2B1    -2.290024     4A1    -2.288649  
       3B1    -2.288001     1B2    -2.287309     1A2    -2.286950  
       5A1    -2.272029     4B1    -2.271075     2B2    -2.267265  
       6A1    -0.338644     7A1    -0.322746     5B1    -0.314551  
       3B2    -0.314156     8A1    -0.300539     4B2    -0.298380  
       2A2    -0.293271     6B1    -0.280687     3A2    -0.276808  
       7B1    -0.275775     9A1    -0.268108     4A2    -0.265811  
      10A1    -0.264233     5B2    -0.263646     8B1    -0.253374  
      11A1    -0.240159    12A1    -0.141366  

    Alpha Virtual:                                                        

       9B1    -0.133706     6B2    -0.056974    13A1    -0.034607  
      10B1    -0.021142    14A1    -0.018146     7B2     0.026529  
       5A2     0.027321    11B1     0.079696    15A1     0.089014  
      12B1     0.091725    16A1     0.109028    17A1     0.159143  
       8B2     0.166470    13B1     0.169678    18A1     0.174726  
      14B1     0.186512    19A1     0.189176     6A2     0.220214  
       9B2     0.230620    15B1     0.293443    16B1     0.344971  
      20A1     0.348072    21A1     0.353318    10B2     0.377891  
       7A2     0.384412    11B2     0.395498    17B1     0.486086  
      22A1     0.486593     8A2     0.527008    23A1     0.551683  
       9A2     0.582920    12B2     0.590258    24A1     0.591454  
      18B1     0.593144    19B1     0.671994    25A1     0.680359  
      20B1     0.727501    26A1     1.458189    21B1     1.461725  
      27A1     1.498417    28A1     1.508661    13B2     1.530477  
      14B2     1.540980    10A2     1.541183    29A1     1.559502  
      22B1     1.563782    15B2     1.565840    11A2     1.577211  
      12A2     1.577501    23B1     1.583898    16B2     1.587770  
      17B2     1.595508    24B1     1.605344    30A1     1.605403  
      18B2     1.612443    25B1     1.613542    31A1     1.625556  
      13A2     1.635031    26B1     1.670413    27B1     1.682844  
      32A1     1.690365    33A1     1.713675    14A2     1.715596  
      19B2     1.725877    34A1     1.748337    28B1     1.751480  
      29B1     1.910942    35A1     1.948738    36A1     2.030980  
      20B2     2.035769    15A2     2.045751    30B1     2.070376  
      21B2     2.075783    37A1     2.083634    16A2     2.092109  
      38A1     2.108447    31B1     2.110483    17A2     2.112068  
      22B2     2.127598    32B1     2.208409    39A1     2.218504  
      33B1     2.243488    40A1     2.376497    34B1     2.563592  
      41A1     2.572645    42A1     4.806110    43A1     4.819642  
      35B1     4.823587    23B2     4.828500    18A2     4.837865  
      24B2     4.838104    44A1     4.844777    25B2     4.856987  
      45A1     4.859441    36B1     4.864007    19A2     4.866347  
      26B2     4.881281    37B1     4.882072    20A2     4.919310  
      38B1     4.938083    21A2     4.943238    46A1     4.948225  
      27B2     4.948425    39B1     5.103072    47A1     5.108675  
      40B1     5.124326    48A1     5.616553    28B2     5.616727  
      22A2     5.616814    41B1     5.617490    49A1     5.618225  
      29B2     5.618283    42B1     5.619003    23A2     5.619248  
      50A1     5.619802    24A2     5.620343    30B2     5.620633  
      43B1     5.621338    44B1     5.622122    51A1     5.622139  
      25A2     5.622473    31B2     5.622519    45B1     5.624756  
      52A1     5.626415    53A1     5.637060    32B2     5.638241  
      26A2     5.639463    54A1     5.641103    33B2     5.641392  
      46B1     5.641960    27A2     5.642174    55A1     5.645441  
      47B1     5.646082    56A1    33.476879    48B1    33.807023  
      57A1    33.826763    58A1   110.861602    49B1   110.964826  
      59A1   110.978128  

    Beta Occupied:                                                        

       1A1    -3.701484     1B1    -3.701161     2A1    -3.683088  
       3A1    -2.293578     2B1    -2.290228     4A1    -2.288661  
       3B1    -2.287604     1B2    -2.287404     1A2    -2.287052  
       5A1    -2.272487     4B1    -2.270743     2B2    -2.267554  
       6A1    -0.338274     7A1    -0.319937     3B2    -0.313497  
       5B1    -0.310961     8A1    -0.297761     4B2    -0.296694  
       2A2    -0.291409     6B1    -0.279983     3A2    -0.276797  
       7B1    -0.275063     9A1    -0.264190     4A2    -0.262126  
      10A1    -0.259651     5B2    -0.258822     8B1    -0.248195  
      11A1    -0.228717  

    Beta Virtual:                                                         

       9B1    -0.123518    12A1    -0.100473     6B2    -0.047290  
      13A1    -0.021079    10B1     0.000360    14A1     0.000480  
       5A2     0.029962     7B2     0.042171    11B1     0.079443  
      15A1     0.086210    12B1     0.092241    16A1     0.111167  
      17A1     0.155939     8B2     0.163840    13B1     0.164038  
      18A1     0.170808    19A1     0.181950    14B1     0.184442  
       6A2     0.219053     9B2     0.230697    15B1     0.294245  
      16B1     0.346308    20A1     0.351100    21A1     0.357570  
      10B2     0.384014     7A2     0.392034    11B2     0.400022  
      17B1     0.491559    22A1     0.497887     8A2     0.535703  
      23A1     0.550429     9A2     0.585729    18B1     0.595818  
      24A1     0.597514    12B2     0.597601    19B1     0.671151  
      25A1     0.678451    20B1     0.730443    26A1     1.459627  
      21B1     1.464630    27A1     1.501304    28A1     1.511554  
      13B2     1.531017    14B2     1.543250    10A2     1.544367  
      29A1     1.559955    22B1     1.564076    15B2     1.566529  
      11A2     1.576977    12A2     1.578692    23B1     1.584104  
      16B2     1.588901    17B2     1.597426    30A1     1.603913  
      24B1     1.605580    18B2     1.610806    25B1     1.613288  
      31A1     1.626907    13A2     1.636383    26B1     1.668596  
      27B1     1.683346    32A1     1.690829    33A1     1.711757  
      14A2     1.715229    19B2     1.723059    34A1     1.744819  
      28B1     1.747701    29B1     1.906772    35A1     1.948498  
      36A1     2.028950    20B2     2.034365    15A2     2.044024  
      30B1     2.068698    21B2     2.075858    37A1     2.079330  
      16A2     2.089004    38A1     2.105633    31B1     2.107257  
      17A2     2.110738    22B2     2.125536    32B1     2.206983  
      39A1     2.215571    33B1     2.240110    40A1     2.372738  
      34B1     2.562239    41A1     2.571140    42A1     4.807704  
      43A1     4.821325    35B1     4.825037    23B2     4.829853  
      18A2     4.839599    24B2     4.840361    44A1     4.846630  
      25B2     4.858787    45A1     4.861114    36B1     4.866004  
      19A2     4.868016    26B2     4.885001    37B1     4.885425  
      20A2     4.920705    38B1     4.939212    21A2     4.944893  
      46A1     4.949869    27B2     4.950563    39B1     5.103893  
      47A1     5.109536    40B1     5.124928    28B2     5.617759  
      48A1     5.617858    22A2     5.618177    41B1     5.618842  
      49A1     5.619100    29B2     5.619429    23A2     5.620327  
      42B1     5.620603    50A1     5.621423    24A2     5.621547  
      30B2     5.621909    43B1     5.622894    51A1     5.623333  
      44B1     5.623436    25A2     5.624027    31B2     5.624270  
      45B1     5.625857    52A1     5.628340    53A1     5.639688  
      32B2     5.641504    26A2     5.642477    54A1     5.643984  
      33B2     5.644587    27A2     5.645306    46B1     5.645364  
      55A1     5.648503    47B1     5.648854    56A1    33.468346  
      48B1    33.803084    57A1    33.812246    58A1   110.860169  
      49B1   110.964112    59A1   110.975371  

    Final Occupation by Irrep:
             A1    A2    B1    B2 
    DOCC [    11,    4,    8,    5 ]
    SOCC [     1,    0,    0,    0 ]

  @DF-UKS Final Energy:  -441.09149461947243

   => Energetics <=

    Nuclear Repulsion Energy =            215.7035793725837323
    One-Electron Energy =               -1214.5216476743667045
    Two-Electron Energy =                 600.2573457117734961
    DFT Exchange-Correlation Energy =     -42.5301749994627585
    Empirical Dispersion Energy =          -0.0005970300000000
    VV10 Nonlocal Energy =                  0.0000000000000000
    Total Energy =                       -441.0914946194722575

  UHF NO Occupations:
  HONO-2 :    8 B1 1.9984268
  HONO-1 :   11 A1 1.9958702
  HONO-0 :   12 A1 1.0000000
  LUNO+0 :   13 A1 0.0041298
  LUNO+1 :    9 B1 0.0015732
  LUNO+2 :   10 B1 0.0003918
  LUNO+3 :    6 B2 0.0003744


Computation Completed


Properties will be evaluated at   0.000000,   0.000000,   0.000000 [a0]

Properties computed using the SCF density matrix

  Nuclear Dipole Moment: [e a0]
     X:    -0.0000      Y:    -0.0000      Z:     0.0000

  Electronic Dipole Moment: [e a0]
     X:     0.0000      Y:     0.0000      Z:    -0.4752

  Dipole Moment: [e a0]
     X:    -0.0000      Y:    -0.0000      Z:    -0.4752     Total:     0.4752

  Dipole Moment: [D]
     X:    -0.0000      Y:    -0.0000      Z:    -1.2078     Total:     1.2078


*** tstop() called on compute347.bc4.acrc.priv at Fri Nov  5 08:41:46 2021
Module time:
	user time   =     478.63 seconds =       7.98 minutes
	system time =      17.83 seconds =       0.30 minutes
	total time  =         26 seconds =       0.43 minutes
Total time:
	user time   =     478.63 seconds =       7.98 minutes
	system time =      17.83 seconds =       0.30 minutes
	total time  =         26 seconds =       0.43 minutes

*** tstart() called on compute347.bc4.acrc.priv
*** at Fri Nov  5 08:41:46 2021


         ------------------------------------------------------------
                                   SCF GRAD                          
                          Rob Parrish, Justin Turney,                
                       Andy Simmonett, and Alex Sokolov              
         ------------------------------------------------------------

  ==> Geometry <==

    Molecular point group: c2v
    Full point group: C2v

    Geometry (in Angstrom), charge = 0, multiplicity = 2:

       Center              X                  Y                   Z               Mass       
    ------------   -----------------  -----------------  -----------------  -----------------
         AG           0.000000000000    -0.000000000000     1.533951333333   106.905091600000
         AG           1.328441000000     0.000000000000    -0.766975666667   106.905091600000
         AG          -1.328441000000    -0.000000000000    -0.766975666667   106.905091600000

  Nuclear repulsion =  215.703579372583732

  ==> Basis Set <==

  Basis Set: DEF2-TZVPPD
    Blend: DEF2-TZVPPD
    Number of shells: 48
    Number of basis functions: 168
    Number of Cartesian functions: 213
    Spherical Harmonics?: true
    Max angular momentum: 4

  Core potential: DEF2-TZVPPD
    Number of shells: 12
    Number of ECP primitives: 42
    Number of ECP core electrons: 84
    Max angular momentum: 3

  ==> DFJKGrad: Density-Fitted SCF Gradients <==

    Gradient:                    1
    J tasked:                  Yes
    K tasked:                   No
    wK tasked:                  No
    OpenMP threads:             28
    Integrals threads:          28
    Memory [MiB]:            85830
    Schwarz Cutoff:          1E-12
    Fitting Condition:       1E-10

   => Auxiliary Basis Set <=

  Basis Set: (DEF2-TZVPPD AUX)
    Blend: DEF2-UNIVERSAL-JKFIT
    Number of shells: 147
    Number of basis functions: 765
    Number of Cartesian functions: 1152
    Spherical Harmonics?: true
    Max angular momentum: 6

  ==> DFT Potential <==

   => Composite Functional: SCAN-D3BJ <= 

    SCAN Meta-GGA XC Functional
(10.1103/PhysRevLett.115.036402)
    J. Sun, A. Ruzsinszky, J. P. Perdew  Phys. Rev. Lett. 115, 036402, 2015


    Deriv               =              1
    GGA                 =           TRUE
    Meta                =           TRUE

    Exchange Hybrid     =          FALSE
    MP2 Hybrid          =          FALSE

   => Exchange Functionals <=

    1.0000   XC_MGGA_X_SCAN

   => Correlation Functionals <=

    1.0000   XC_MGGA_C_SCAN

   => LibXC Density Thresholds  <==

    XC_MGGA_C_SCAN:  1.00E-15 
    XC_MGGA_X_SCAN:  1.00E-15 

   => Molecular Quadrature <=

    Radial Scheme          =       TREUTLER
    Pruning Scheme         =           NONE
    Nuclear Scheme         =       TREUTLER

    BS radius alpha        =              1
    Pruning alpha          =              1
    Radial Points          =             75
    Spherical Points       =            302
    Total Points           =          62882
    Total Blocks           =            592
    Max Points             =            256
    Max Functions          =            165
    Weights Tolerance      =       1.00E-15


  -Total Gradient:
     Atom            X                  Y                   Z
    ------   -----------------  -----------------  -----------------
       1        0.000000000000    -0.000000000000    -0.113815497947
       2       -0.120389109735    -0.000000000000     0.057377290370
       3        0.120389109735     0.000000000000     0.057377290370


*** tstop() called on compute347.bc4.acrc.priv at Fri Nov  5 08:41:59 2021
Module time:
	user time   =      97.70 seconds =       1.63 minutes
	system time =       6.21 seconds =       0.10 minutes
	total time  =         13 seconds =       0.22 minutes
Total time:
	user time   =     577.70 seconds =       9.63 minutes
	system time =      24.11 seconds =       0.40 minutes
	total time  =         39 seconds =       0.65 minutes


  ==> Adding ECP gradient terms (computed numerically) <==

  -ECP Gradient:
     Atom            X                  Y                   Z
    ------   -----------------  -----------------  -----------------
       1        0.000000000000    -0.000000000000     0.105344400770
       2        0.122456657804     0.000000000000    -0.052672200196
       3       -0.122456657804    -0.000000000000    -0.052672200196


  -Total Gradient:
     Atom            X                  Y                   Z
    ------   -----------------  -----------------  -----------------
       1        0.000000000000    -0.000000000000    -0.008471097177
       2        0.002067548069     0.000000000000     0.004705090174
       3       -0.002067548069    -0.000000000000     0.004705090174


			-----------------------------------------
			 OPTKING 2.0: for geometry optimizations 
			  - R.A. King,  Bethel University        
			-----------------------------------------
	At level 1: Red. Int., RFO, no backsteps, dynamic trust

	Internal coordinates to be generated automatically.
	Detected frag 1 with atoms:  1 2 3
	---Fragment 1 Bond Connectivity---
	 1 : 2 3
	 2 : 1 3
	 3 : 1 2

	---Fragment 1 Geometry and Gradient---
	 AG          0.0000000000       -0.0000000000        2.8987479098
	 AG          2.5103896638        0.0000000000       -1.4493739549
	 AG         -2.5103896638       -0.0000000000       -1.4493739549
	             0.0000000000       -0.0000000000       -0.0084710972
	             0.0020675481        0.0000000000        0.0047050902
	            -0.0020675481       -0.0000000000        0.0047050902

	Previous optimization step data not found.  Starting new optimization.

	---Fragment 1 Intrafragment Coordinates---
	 - Coordinate -           - BOHR/RAD -       - ANG/DEG -
	 R(1,2)           =         5.020779	       2.656882
	 R(1,3)           =         5.020779	       2.656882
	 R(2,3)           =         5.020779	       2.656882
	 B(1,2,3)         =         1.047197	      59.999997
	 B(1,3,2)         =         1.047197	      59.999997
	 B(2,1,3)         =         1.047198	      60.000007

	Current energy   :      -441.0914946195

	Generating empirical Hessian (Schlegel '84) for each fragment.
	Taking RFO optimization step.
	Going to follow RFO solution 1.
	Using RFO vector 1.
	Norm of target step-size    0.09734
	Projected energy change by RFO approximation:        -0.0005639523

	Back-transformation to cartesian coordinates...
	Successfully converged to displaced geometry.

	--- Internal Coordinate Step in ANG or DEG, aJ/ANG or AJ/DEG ---
	 ---------------------------------------------------------------------------
	   Coordinate                Previous        Force       Change         New 
	   ----------                --------       ------       ------       ------
	    1 R(1,2)          =      2.656882     0.038957     0.031784     2.688666
	    2 R(1,3)          =      2.656882     0.038957     0.031784     2.688666
	    3 R(2,3)          =      2.656882    -0.032274    -0.020547     2.636335
	    4 B(1,2,3)        =     59.999997     0.000076     0.641787    60.641784
	    5 B(1,3,2)        =     59.999997     0.000076     0.641787    60.641784
	    6 B(2,1,3)        =     60.000007    -0.000151    -1.283575    58.716432
	 ---------------------------------------------------------------------------
	Successfully symmetrized geometry.

  ==> Convergence Check <==

  Measures of convergence in internal coordinates in au.
  Criteria marked as inactive (o), active & met (*), and active & unmet ( ).
  --------------------------------------------------------------------------------------------- ~
   Step     Total Energy     Delta E     MAX Force     RMS Force      MAX Disp      RMS Disp    ~
  --------------------------------------------------------------------------------------------- ~
    Convergence Criteria    1.00e-06 *    3.00e-04 *             o    1.20e-03 *             o  ~
  --------------------------------------------------------------------------------------------- ~
      1    -441.09149462   -4.41e+02      4.73e-03      3.32e-03 o    6.01e-02      3.97e-02 o  ~
  ---------------------------------------------------------------------------------------------

	Writing optimization data to binary file.
	Structure for next step:
	Cartesian Geometry (in Angstrom)
	   AG     0.0000000000  -0.0000000000   1.5622430265
	   AG     1.3181674467   0.0000000000  -0.7811215133
	   AG    -1.3181674467  -0.0000000000  -0.7811215133
			--------------------------
			 OPTKING Finished Execution 
			--------------------------

    Structure for next step:
    Molecular point group: c2v
    Full point group: C2v

    Geometry (in Angstrom), charge = 0, multiplicity = 2:

    AG           0.000000000000    -0.000000000000     1.562243032657
    AG           1.318167451841     0.000000000000    -0.781121516329
    AG          -1.318167451841    -0.000000000000    -0.781121516329


Scratch directory: /tmp/
gradient() will perform analytic gradient computation.

*** tstart() called on compute347.bc4.acrc.priv
*** at Fri Nov  5 08:45:04 2021

   => Loading Basis Set <=

    Name: DEF2-TZVPPD
    Role: ORBITAL
    Keyword: BASIS
    atoms 1-3 entry AG         line  2174 (ECP: line  3646) file /mnt/storage/home/zw18965/.conda/envs/p4env/share/psi4/basis/def2-tzvppd.gbs 

    !!!  WARNING: ECP capability is in beta. Please check occupations closely.  !!!

   => SCAN-D3(BJ): Empirical Dispersion <=

    Grimme's -D3 (BJ-damping) Dispersion Correction
    Grimme S.; Ehrlich S.; Goerigk L. (2011), J. Comput. Chem., 32: 1456
    Parametrisation from:    J.G. Brandenburg, J. E. Bates, J. Sun, J.P. Perdew, Phys. Rev. B 94, 115144, 2016

        s6 =       1.000000
        s8 =       0.000000
        a1 =       0.538000
        a2 =       5.420000


         ---------------------------------------------------------
                                   SCF
               by Justin Turney, Rob Parrish, Andy Simmonett
                          and Daniel G. A. Smith
                              UKS Reference
                       28 Threads, 114440 MiB Core
         ---------------------------------------------------------

  ==> Geometry <==

    Molecular point group: c2v
    Full point group: C2v

    Geometry (in Angstrom), charge = 0, multiplicity = 2:

       Center              X                  Y                   Z               Mass       
    ------------   -----------------  -----------------  -----------------  -----------------
         AG           0.000000000000    -0.000000000000     1.562243032657   106.905091600000
         AG           1.318167451841     0.000000000000    -0.781121516329   106.905091600000
         AG          -1.318167451841    -0.000000000000    -0.781121516329   106.905091600000

  Running in c2v symmetry.

  Rotational constants: A =      0.04538  B =      0.04307  C =      0.02210 [cm^-1]
  Rotational constants: A =   1360.34056  B =   1291.30953  C =    662.46325 [MHz]
  Nuclear repulsion =  214.564012802795361

  Charge       = 0
  Multiplicity = 2
  Electrons    = 57
  Nalpha       = 29
  Nbeta        = 28

  ==> Algorithm <==

  SCF Algorithm Type is DF.
  DIIS enabled.
  MOM disabled.
  Fractional occupation disabled.
  Guess Type is READ.
  Energy threshold   = 1.00e-08
  Density threshold  = 1.00e-08
  Integral threshold = 1.00e-12

  ==> Primary Basis <==

  Basis Set: DEF2-TZVPPD
    Blend: DEF2-TZVPPD
    Number of shells: 48
    Number of basis functions: 168
    Number of Cartesian functions: 213
    Spherical Harmonics?: true
    Max angular momentum: 4

  Core potential: DEF2-TZVPPD
    Number of shells: 12
    Number of ECP primitives: 42
    Number of ECP core electrons: 84
    Max angular momentum: 3

  ==> DFT Potential <==

   => Composite Functional: SCAN-D3BJ <= 

    SCAN Meta-GGA XC Functional
(10.1103/PhysRevLett.115.036402)
    J. Sun, A. Ruzsinszky, J. P. Perdew  Phys. Rev. Lett. 115, 036402, 2015


    Deriv               =              1
    GGA                 =           TRUE
    Meta                =           TRUE

    Exchange Hybrid     =          FALSE
    MP2 Hybrid          =          FALSE

   => Exchange Functionals <=

    1.0000   XC_MGGA_X_SCAN

   => Correlation Functionals <=

    1.0000   XC_MGGA_C_SCAN

   => LibXC Density Thresholds  <==

    XC_MGGA_C_SCAN:  1.00E-15 
    XC_MGGA_X_SCAN:  1.00E-15 

   => Molecular Quadrature <=

    Radial Scheme          =       TREUTLER
    Pruning Scheme         =           NONE
    Nuclear Scheme         =       TREUTLER

    BS radius alpha        =              1
    Pruning alpha          =              1
    Radial Points          =             75
    Spherical Points       =            302
    Total Points           =          62904
    Total Blocks           =            588
    Max Points             =            256
    Max Functions          =            165
    Weights Tolerance      =       1.00E-15

   => Loading Basis Set <=

    Name: (DEF2-TZVPPD AUX)
    Role: JKFIT
    Keyword: DF_BASIS_SCF
    atoms 1-3 entry AG         line  4364 file /mnt/storage/home/zw18965/.conda/envs/p4env/share/psi4/basis/def2-universal-jkfit.gbs 

   => Loading Basis Set <=

    Name: DEF2-TZVPPD
    Role: ORBITAL
    Keyword: BASIS
    atoms 1-3 entry AG         line  2174 (ECP: line  3646) file /mnt/storage/home/zw18965/.conda/envs/p4env/share/psi4/basis/def2-tzvppd.gbs 

    !!!  WARNING: ECP capability is in beta. Please check occupations closely.  !!!

  Reading orbitals from file /tmp/Ag03N0_D3H.default.15236.180.npy, no projection.

  ==> Integral Setup <==

  DFHelper Memory: AOs need 0.177 GiB; user supplied 83.306 GiB. Using in-core AOs.

  ==> MemDFJK: Density-Fitted J/K Matrices <==

    J tasked:                   Yes
    K tasked:                    No
    wK tasked:                   No
    OpenMP threads:              28
    Memory [MiB]:             85305
    Algorithm:                 Core
    Schwarz Cutoff:           1E-12
    Mask sparsity (%):       1.3039
    Fitting Condition:        1E-10

   => Auxiliary Basis Set <=

  Basis Set: (DEF2-TZVPPD AUX)
    Blend: DEF2-UNIVERSAL-JKFIT
    Number of shells: 147
    Number of basis functions: 765
    Number of Cartesian functions: 1152
    Spherical Harmonics?: true
    Max angular momentum: 6

  Cached 100.0% of DFT collocation blocks in 0.513 [GiB].

  Minimum eigenvalue in the overlap matrix is 2.6090963480E-03.
  Reciprocal condition number of the overlap matrix is 5.4995590342E-04.
    Using symmetric orthogonalization.

  ==> Pre-Iterations <==

  SCF Guess: Orbitals guess was supplied from a previous computation.

   -------------------------------------------------------
    Irrep   Nso     Nmo     Nalpha   Nbeta   Ndocc  Nsocc
   -------------------------------------------------------
     A1        59      59      12      11      11       1
     A2        27      27       4       4       4       0
     B1        49      49       8       8       8       0
     B2        33      33       5       5       5       0
   -------------------------------------------------------
    Total     168     168      29      28      28       1
   -------------------------------------------------------

  ==> Iterations <==

                           Total Energy        Delta E     RMS |[F,P]|

   @DF-UKS iter   0:  -441.09205627436586   -4.41092e+02   7.17725e-04 
   @DF-UKS iter   1:  -441.09225290625659   -1.96632e-04   5.46420e-05 DIIS
   @DF-UKS iter   2:  -441.09219783077060    5.50755e-05   1.41554e-04 DIIS
   @DF-UKS iter   3:  -441.09226516760930   -6.73368e-05   8.03228e-06 DIIS
   @DF-UKS iter   4:  -441.09226544264459   -2.75035e-07   3.90131e-06 DIIS
   @DF-UKS iter   5:  -441.09226550473386   -6.20893e-08   1.21417e-06 DIIS
   @DF-UKS iter   6:  -441.09226551334189   -8.60803e-09   5.88465e-07 DIIS
   @DF-UKS iter   7:  -441.09226551527627   -1.93438e-09   2.07100e-07 DIIS
   @DF-UKS iter   8:  -441.09226551540382   -1.27557e-10   7.73509e-08 DIIS
   @DF-UKS iter   9:  -441.09226551542702   -2.31921e-11   3.73233e-08 DIIS
   @DF-UKS iter  10:  -441.09226551543111   -4.09273e-12   6.50104e-09 DIIS
  Energy and wave function converged.


  ==> Post-Iterations <==

   Electrons on quadrature grid:
      Nalpha   =   28.9999945385 ; deviation = -5.461e-06
      Nbeta    =   27.9999940018 ; deviation = -5.998e-06
      Ntotal   =   56.9999885403 ; deviation = -1.146e-05 

   @Spin Contamination Metric:   1.552212943E-02
   @S^2 Expected:                7.500000000E-01
   @S^2 Observed:                7.655221294E-01
   @S   Expected:                5.000000000E-01
   @S   Observed:                5.000000000E-01

    Orbital Energies [Eh]
    ---------------------

    Alpha Occupied:                                                       

       1A1    -3.701580     1B1    -3.701218     2A1    -3.682920  
       3A1    -2.293736     2B1    -2.289575     4A1    -2.288248  
       3B1    -2.287632     1B2    -2.287016     1A2    -2.286624  
       5A1    -2.270574     4B1    -2.269636     2B2    -2.266071  
       6A1    -0.337124     7A1    -0.323164     3B2    -0.313527  
       5B1    -0.311452     8A1    -0.299780     4B2    -0.298074  
       2A2    -0.291767     6B1    -0.279762     3A2    -0.275997  
       7B1    -0.275029     9A1    -0.267788     4A2    -0.265520  
      10A1    -0.264300     5B2    -0.263499     8B1    -0.253563  
      11A1    -0.239386    12A1    -0.142337  

    Alpha Virtual:                                                        

       9B1    -0.132700     6B2    -0.056615    13A1    -0.034741  
      10B1    -0.020783    14A1    -0.018354     7B2     0.025287  
       5A2     0.028007    11B1     0.080495    15A1     0.087679  
      12B1     0.090503    16A1     0.109254    17A1     0.159310  
       8B2     0.166871    13B1     0.169817    18A1     0.174289  
      14B1     0.187069    19A1     0.188147     6A2     0.220942  
       9B2     0.229557    15B1     0.292626    16B1     0.345475  
      20A1     0.346978    21A1     0.347837    10B2     0.378514  
       7A2     0.383830    11B2     0.393160    22A1     0.485517  
      17B1     0.486053     8A2     0.526471    23A1     0.550951  
       9A2     0.583469    12B2     0.588612    24A1     0.590725  
      18B1     0.591201    19B1     0.672706    25A1     0.679014  
      20B1     0.726292    26A1     1.449648    21B1     1.478855  
      27A1     1.507868    28A1     1.512111    13B2     1.528252  
      14B2     1.544011    10A2     1.546173    29A1     1.558832  
      22B1     1.565504    15B2     1.566095    11A2     1.577974  
      12A2     1.579260    16B2     1.585133    23B1     1.585177  
      17B2     1.595804    30A1     1.601948    24B1     1.606674  
      18B2     1.613046    25B1     1.614186    31A1     1.621115  
      13A2     1.632963    26B1     1.664325    32A1     1.685411  
      27B1     1.685579    33A1     1.714880    14A2     1.716166  
      19B2     1.721165    34A1     1.745697    28B1     1.749182  
      29B1     1.909140    35A1     1.946277    36A1     2.032116  
      20B2     2.035506    15A2     2.047861    30B1     2.072019  
      21B2     2.077450    37A1     2.083558    16A2     2.092711  
      38A1     2.106738    17A2     2.112506    31B1     2.119475  
      22B2     2.126376    39A1     2.204693    32B1     2.210493  
      33B1     2.237272    40A1     2.375884    34B1     2.558580  
      41A1     2.568142    42A1     4.809409    43A1     4.818920  
      23B2     4.825959    35B1     4.826916    24B2     4.842261  
      18A2     4.843055    44A1     4.846543    25B2     4.857426  
      45A1     4.858854    36B1     4.865726    19A2     4.867210  
      26B2     4.881891    37B1     4.883059    20A2     4.918751  
      46A1     4.939629    38B1     4.941724    27B2     4.941902  
      21A2     4.943259    47A1     5.095691    39B1     5.103228  
      40B1     5.119162    48A1     5.616788    28B2     5.617164  
      22A2     5.617304    41B1     5.617928    29B2     5.618329  
      49A1     5.618429    42B1     5.619191    23A2     5.619643  
      50A1     5.620060    24A2     5.620592    30B2     5.620929  
      43B1     5.621596    51A1     5.622363    44B1     5.622369  
      25A2     5.623078    31B2     5.623134    45B1     5.625893  
      52A1     5.626529    53A1     5.638086    32B2     5.639701  
      26A2     5.640452    54A1     5.642027    33B2     5.642517  
      46B1     5.642900    27A2     5.643275    55A1     5.645518  
      47B1     5.647052    56A1    33.472136    48B1    33.801309  
      57A1    33.818726    58A1   110.860703    49B1   110.963209  
      59A1   110.976057  

    Beta Occupied:                                                        

       1A1    -3.701198     1B1    -3.700841     2A1    -3.681705  
       3A1    -2.293403     2B1    -2.289698     4A1    -2.288300  
       3B1    -2.287278     1B2    -2.287107     1A2    -2.286722  
       5A1    -2.271120     4B1    -2.269379     2B2    -2.266424  
       6A1    -0.336820     7A1    -0.320336     3B2    -0.312830  
       5B1    -0.307843     8A1    -0.297009     4B2    -0.296345  
       2A2    -0.289949     6B1    -0.279029     3A2    -0.275962  
       7B1    -0.274280     9A1    -0.263716     4A2    -0.261750  
      10A1    -0.259776     5B2    -0.258603     8B1    -0.248407  
      11A1    -0.227761  

    Beta Virtual:                                                         

       9B1    -0.122792    12A1    -0.101526     6B2    -0.046979  
      13A1    -0.020642    14A1    -0.000686    10B1     0.000644  
       5A2     0.030511     7B2     0.041345    11B1     0.079838  
      15A1     0.085369    12B1     0.091790    16A1     0.111220  
      17A1     0.156258    13B1     0.164153     8B2     0.164253  
      18A1     0.170745    19A1     0.181218    14B1     0.185165  
       6A2     0.219887     9B2     0.229862    15B1     0.293464  
      16B1     0.346947    20A1     0.348292    21A1     0.354296  
      10B2     0.385435     7A2     0.391510    11B2     0.396734  
      17B1     0.491416    22A1     0.496930     8A2     0.535209  
      23A1     0.549947     9A2     0.585960    18B1     0.593951  
      12B2     0.596161    24A1     0.596397    19B1     0.672250  
      25A1     0.677251    20B1     0.728880    26A1     1.450912  
      21B1     1.481881    27A1     1.511102    28A1     1.514655  
      13B2     1.528718    14B2     1.545969    10A2     1.549287  
      29A1     1.559382    22B1     1.565671    15B2     1.566731  
      11A2     1.577916    12A2     1.580417    23B1     1.585509  
      16B2     1.586568    17B2     1.597660    30A1     1.600882  
      24B1     1.606757    18B2     1.611697    25B1     1.613736  
      31A1     1.622860    13A2     1.634254    26B1     1.664162  
      27B1     1.684565    32A1     1.685244    33A1     1.713146  
      14A2     1.715685    19B2     1.718105    34A1     1.741675  
      28B1     1.745444    29B1     1.904964    35A1     1.945893  
      36A1     2.029976    20B2     2.034008    15A2     2.046036  
      30B1     2.070299    21B2     2.077451    37A1     2.079200  
      16A2     2.089261    38A1     2.104029    17A2     2.111407  
      31B1     2.116232    22B2     2.124137    39A1     2.201848  
      32B1     2.208243    33B1     2.234386    40A1     2.372008  
      34B1     2.557119    41A1     2.566472    42A1     4.810913  
      43A1     4.820549    23B2     4.827281    35B1     4.828359  
      24B2     4.844427    18A2     4.844755    44A1     4.848468  
      25B2     4.859156    45A1     4.860461    36B1     4.867596  
      19A2     4.868819    26B2     4.885734    37B1     4.886643  
      20A2     4.920301    46A1     4.941292    38B1     4.942734  
      27B2     4.943999    21A2     4.944708    47A1     5.096483  
      39B1     5.104040    40B1     5.119670    48A1     5.618052  
      28B2     5.618136    22A2     5.618645    41B1     5.619238  
      49A1     5.619284    29B2     5.619473    23A2     5.620694  
      42B1     5.620772    50A1     5.621590    24A2     5.621739  
      30B2     5.622172    43B1     5.623002    51A1     5.623531  
      44B1     5.623712    25A2     5.624592    31B2     5.624833  
      45B1     5.626948    52A1     5.628396    53A1     5.640757  
      32B2     5.643032    26A2     5.643510    54A1     5.645000  
      33B2     5.645729    46B1     5.646372    27A2     5.646539  
      55A1     5.648703    47B1     5.649746    56A1    33.463118  
      48B1    33.797418    57A1    33.804153    58A1   110.859198  
      49B1   110.962504    59A1   110.973262  

    Final Occupation by Irrep:
             A1    A2    B1    B2 
    DOCC [    11,    4,    8,    5 ]
    SOCC [     1,    0,    0,    0 ]

  @DF-UKS Final Energy:  -441.09226551543111

   => Energetics <=

    Nuclear Repulsion Energy =            214.5640128027953608
    One-Electron Energy =               -1212.2828478765286491
    Two-Electron Energy =                 599.1552943679600958
    DFT Exchange-Correlation Energy =     -42.5281280196579630
    Empirical Dispersion Energy =          -0.0005967900000000
    VV10 Nonlocal Energy =                  0.0000000000000000
    Total Energy =                       -441.0922655154311656

  UHF NO Occupations:
  HONO-2 :    8 B1 1.9985127
  HONO-1 :   11 A1 1.9958609
  HONO-0 :   12 A1 1.0000000
  LUNO+0 :   13 A1 0.0041391
  LUNO+1 :    9 B1 0.0014873
  LUNO+2 :   10 B1 0.0003832
  LUNO+3 :    6 B2 0.0003662


Computation Completed


Properties will be evaluated at   0.000000,   0.000000,   0.000000 [a0]

Properties computed using the SCF density matrix

  Nuclear Dipole Moment: [e a0]
     X:    -0.0000      Y:    -0.0000      Z:    -0.0000

  Electronic Dipole Moment: [e a0]
     X:     0.0000      Y:     0.0000      Z:    -0.4778

  Dipole Moment: [e a0]
     X:    -0.0000      Y:    -0.0000      Z:    -0.4778     Total:     0.4778

  Dipole Moment: [D]
     X:    -0.0000      Y:    -0.0000      Z:    -1.2144     Total:     1.2144


*** tstop() called on compute347.bc4.acrc.priv at Fri Nov  5 08:45:21 2021
Module time:
	user time   =     329.22 seconds =       5.49 minutes
	system time =      11.29 seconds =       0.19 minutes
	total time  =         17 seconds =       0.28 minutes
Total time:
	user time   =    1992.01 seconds =      33.20 minutes
	system time =      44.34 seconds =       0.74 minutes
	total time  =        241 seconds =       4.02 minutes

*** tstart() called on compute347.bc4.acrc.priv
*** at Fri Nov  5 08:45:21 2021


         ------------------------------------------------------------
                                   SCF GRAD                          
                          Rob Parrish, Justin Turney,                
                       Andy Simmonett, and Alex Sokolov              
         ------------------------------------------------------------

  ==> Geometry <==

    Molecular point group: c2v
    Full point group: C2v

    Geometry (in Angstrom), charge = 0, multiplicity = 2:

       Center              X                  Y                   Z               Mass       
    ------------   -----------------  -----------------  -----------------  -----------------
         AG           0.000000000000    -0.000000000000     1.562243032657   106.905091600000
         AG           1.318167451841     0.000000000000    -0.781121516329   106.905091600000
         AG          -1.318167451841    -0.000000000000    -0.781121516329   106.905091600000

  Nuclear repulsion =  214.564012802795361

  ==> Basis Set <==

  Basis Set: DEF2-TZVPPD
    Blend: DEF2-TZVPPD
    Number of shells: 48
    Number of basis functions: 168
    Number of Cartesian functions: 213
    Spherical Harmonics?: true
    Max angular momentum: 4

  Core potential: DEF2-TZVPPD
    Number of shells: 12
    Number of ECP primitives: 42
    Number of ECP core electrons: 84
    Max angular momentum: 3

  ==> DFJKGrad: Density-Fitted SCF Gradients <==

    Gradient:                    1
    J tasked:                  Yes
    K tasked:                   No
    wK tasked:                  No
    OpenMP threads:             28
    Integrals threads:          28
    Memory [MiB]:            85830
    Schwarz Cutoff:          1E-12
    Fitting Condition:       1E-10

   => Auxiliary Basis Set <=

  Basis Set: (DEF2-TZVPPD AUX)
    Blend: DEF2-UNIVERSAL-JKFIT
    Number of shells: 147
    Number of basis functions: 765
    Number of Cartesian functions: 1152
    Spherical Harmonics?: true
    Max angular momentum: 6

  ==> DFT Potential <==

   => Composite Functional: SCAN-D3BJ <= 

    SCAN Meta-GGA XC Functional
(10.1103/PhysRevLett.115.036402)
    J. Sun, A. Ruzsinszky, J. P. Perdew  Phys. Rev. Lett. 115, 036402, 2015


    Deriv               =              1
    GGA                 =           TRUE
    Meta                =           TRUE

    Exchange Hybrid     =          FALSE
    MP2 Hybrid          =          FALSE

   => Exchange Functionals <=

    1.0000   XC_MGGA_X_SCAN

   => Correlation Functionals <=

    1.0000   XC_MGGA_C_SCAN

   => LibXC Density Thresholds  <==

    XC_MGGA_C_SCAN:  1.00E-15 
    XC_MGGA_X_SCAN:  1.00E-15 

   => Molecular Quadrature <=

    Radial Scheme          =       TREUTLER
    Pruning Scheme         =           NONE
    Nuclear Scheme         =       TREUTLER

    BS radius alpha        =              1
    Pruning alpha          =              1
    Radial Points          =             75
    Spherical Points       =            302
    Total Points           =          62904
    Total Blocks           =            588
    Max Points             =            256
    Max Functions          =            165
    Weights Tolerance      =       1.00E-15


  -Total Gradient:
     Atom            X                  Y                   Z
    ------   -----------------  -----------------  -----------------
       1        0.000000000000    -0.000000000000    -0.103220298596
       2       -0.122198480067    -0.000000000000     0.051921265278
       3        0.122198480067     0.000000000000     0.051921265278


*** tstop() called on compute347.bc4.acrc.priv at Fri Nov  5 08:45:31 2021
Module time:
	user time   =      93.04 seconds =       1.55 minutes
	system time =       2.61 seconds =       0.04 minutes
	total time  =         10 seconds =       0.17 minutes
Total time:
	user time   =    2087.63 seconds =      34.79 minutes
	system time =      47.05 seconds =       0.78 minutes
	total time  =        251 seconds =       4.18 minutes


  ==> Adding ECP gradient terms (computed numerically) <==

  -ECP Gradient:
     Atom            X                  Y                   Z
    ------   -----------------  -----------------  -----------------
       1        0.000000000000     0.000000000000     0.098697092206
       2        0.123813667994     0.000000000000    -0.049348545564
       3       -0.123813667994    -0.000000000000    -0.049348545564


  -Total Gradient:
     Atom            X                  Y                   Z
    ------   -----------------  -----------------  -----------------
       1        0.000000000000    -0.000000000000    -0.004523206390
       2        0.001615187927     0.000000000000     0.002572719714
       3       -0.001615187927    -0.000000000000     0.002572719714


			-----------------------------------------
			 OPTKING 2.0: for geometry optimizations 
			  - R.A. King,  Bethel University        
			-----------------------------------------
	At level 1: Red. Int., RFO, no backsteps, dynamic trust

	Previous internal coordinate definitions found.
	---Fragment 1 Geometry and Gradient---
	 AG          0.0000000000       -0.0000000000        2.9522114731
	 AG          2.4909754715        0.0000000000       -1.4761057366
	 AG         -2.4909754715       -0.0000000000       -1.4761057366
	             0.0000000000       -0.0000000000       -0.0045232064
	             0.0016151879        0.0000000000        0.0025727197
	            -0.0016151879       -0.0000000000        0.0025727197

	---Fragment 1 Intrafragment Coordinates---
	 - Coordinate -           - BOHR/RAD -       - ANG/DEG -
	 R(1,2)           =         5.080842	       2.688666
	 R(1,3)           =         5.080842	       2.688666
	 R(2,3)           =         4.981951	       2.636335
	 B(1,2,3)         =         1.058399	      60.641784
	 B(1,3,2)         =         1.058399	      60.641784
	 B(2,1,3)         =         1.024795	      58.716432

	Current energy   :      -441.0922655154

	Energy change for the previous step:
		Projected    :        -0.0005639523
		Actual       :        -0.0007708960
	Energy ratio indicates good step: Trust radius increased to 1.000e+00.


	Performing BFGS update.
	Previous computed or guess Hessian on step 1.
	Steps to be used in Hessian update: 1
	Taking RFO optimization step.
	Going to follow RFO solution 1.
	Using RFO vector 1.
	Norm of target step-size    0.12305
	Projected energy change by RFO approximation:        -0.0015239499

	Back-transformation to cartesian coordinates...
	Successfully converged to displaced geometry.

	--- Internal Coordinate Step in ANG or DEG, aJ/ANG or AJ/DEG ---
	 ---------------------------------------------------------------------------
	   Coordinate                Previous        Force       Change         New 
	   ----------                --------       ------       ------       ------
	    1 R(1,2)          =      2.688666     0.020803     0.037858     2.726524
	    2 R(1,3)          =      2.688666     0.020803     0.037858     2.726524
	    3 R(2,3)          =      2.636335    -0.021095    -0.031954     2.604381
	    4 B(1,2,3)        =     60.641784     0.000043     0.829377    61.471161
	    5 B(1,3,2)        =     60.641784     0.000043     0.829377    61.471161
	    6 B(2,1,3)        =     58.716432    -0.000087    -1.658754    57.057678
	 ---------------------------------------------------------------------------
	Successfully symmetrized geometry.

  ==> Convergence Check <==

  Measures of convergence in internal coordinates in au.
  Criteria marked as inactive (o), active & met (*), and active & unmet ( ).
  ---------------------------------------------------------------------------------------------
   Step     Total Energy     Delta E     MAX Force     RMS Force      MAX Disp      RMS Disp   
  ---------------------------------------------------------------------------------------------
    Convergence Criteria    1.00e-06 *    3.00e-04 *             o    1.20e-03 *             o
  ---------------------------------------------------------------------------------------------
      2    -441.09226552   -7.71e-04      2.56e-03      1.88e-03 o    7.15e-02      5.02e-02 o  ~
  ---------------------------------------------------------------------------------------------

	Writing optimization data to binary file.
	Structure for next step:
	Cartesian Geometry (in Angstrom)
	   AG     0.0000000000  -0.0000000000   1.5969737598
	   AG     1.3021905982   0.0000000000  -0.7984868799
	   AG    -1.3021905982  -0.0000000000  -0.7984868799
			--------------------------
			 OPTKING Finished Execution 
			--------------------------

    Structure for next step:
    Molecular point group: c2v
    Full point group: C2v

    Geometry (in Angstrom), charge = 0, multiplicity = 2:

    AG           0.000000000000    -0.000000000000     1.596973766028
    AG           1.302190603324     0.000000000000    -0.798486883014
    AG          -1.302190603324    -0.000000000000    -0.798486883014


Scratch directory: /tmp/
gradient() will perform analytic gradient computation.

*** tstart() called on compute347.bc4.acrc.priv
*** at Fri Nov  5 08:48:35 2021

   => Loading Basis Set <=

    Name: DEF2-TZVPPD
    Role: ORBITAL
    Keyword: BASIS
    atoms 1-3 entry AG         line  2174 (ECP: line  3646) file /mnt/storage/home/zw18965/.conda/envs/p4env/share/psi4/basis/def2-tzvppd.gbs 

    !!!  WARNING: ECP capability is in beta. Please check occupations closely.  !!!

   => SCAN-D3(BJ): Empirical Dispersion <=

    Grimme's -D3 (BJ-damping) Dispersion Correction
    Grimme S.; Ehrlich S.; Goerigk L. (2011), J. Comput. Chem., 32: 1456
    Parametrisation from:    J.G. Brandenburg, J. E. Bates, J. Sun, J.P. Perdew, Phys. Rev. B 94, 115144, 2016

        s6 =       1.000000
        s8 =       0.000000
        a1 =       0.538000
        a2 =       5.420000


         ---------------------------------------------------------
                                   SCF
               by Justin Turney, Rob Parrish, Andy Simmonett
                          and Daniel G. A. Smith
                              UKS Reference
                       28 Threads, 114440 MiB Core
         ---------------------------------------------------------

  ==> Geometry <==

    Molecular point group: c2v
    Full point group: C2v

    Geometry (in Angstrom), charge = 0, multiplicity = 2:

       Center              X                  Y                   Z               Mass       
    ------------   -----------------  -----------------  -----------------  -----------------
         AG           0.000000000000    -0.000000000000     1.596973766028   106.905091600000
         AG           1.302190603324     0.000000000000    -0.798486883014   106.905091600000
         AG          -1.302190603324    -0.000000000000    -0.798486883014   106.905091600000

  Running in c2v symmetry.

  Rotational constants: A =      0.04650  B =      0.04122  C =      0.02185 [cm^-1]
  Rotational constants: A =   1393.92594  B =   1235.75389  C =    655.04149 [MHz]
  Nuclear repulsion =  213.479945601452016

  Charge       = 0
  Multiplicity = 2
  Electrons    = 57
  Nalpha       = 29
  Nbeta        = 28

  ==> Algorithm <==

  SCF Algorithm Type is DF.
  DIIS enabled.
  MOM disabled.
  Fractional occupation disabled.
  Guess Type is READ.
  Energy threshold   = 1.00e-08
  Density threshold  = 1.00e-08
  Integral threshold = 1.00e-12

  ==> Primary Basis <==

  Basis Set: DEF2-TZVPPD
    Blend: DEF2-TZVPPD
    Number of shells: 48
    Number of basis functions: 168
    Number of Cartesian functions: 213
    Spherical Harmonics?: true
    Max angular momentum: 4

  Core potential: DEF2-TZVPPD
    Number of shells: 12
    Number of ECP primitives: 42
    Number of ECP core electrons: 84
    Max angular momentum: 3

  ==> DFT Potential <==

   => Composite Functional: SCAN-D3BJ <= 

    SCAN Meta-GGA XC Functional
(10.1103/PhysRevLett.115.036402)
    J. Sun, A. Ruzsinszky, J. P. Perdew  Phys. Rev. Lett. 115, 036402, 2015


    Deriv               =              1
    GGA                 =           TRUE
    Meta                =           TRUE

    Exchange Hybrid     =          FALSE
    MP2 Hybrid          =          FALSE

   => Exchange Functionals <=

    1.0000   XC_MGGA_X_SCAN

   => Correlation Functionals <=

    1.0000   XC_MGGA_C_SCAN

   => LibXC Density Thresholds  <==

    XC_MGGA_C_SCAN:  1.00E-15 
    XC_MGGA_X_SCAN:  1.00E-15 

   => Molecular Quadrature <=

    Radial Scheme          =       TREUTLER
    Pruning Scheme         =           NONE
    Nuclear Scheme         =       TREUTLER

    BS radius alpha        =              1
    Pruning alpha          =              1
    Radial Points          =             75
    Spherical Points       =            302
    Total Points           =          62926
    Total Blocks           =            583
    Max Points             =            256
    Max Functions          =            165
    Weights Tolerance      =       1.00E-15

   => Loading Basis Set <=

    Name: (DEF2-TZVPPD AUX)
    Role: JKFIT
    Keyword: DF_BASIS_SCF
    atoms 1-3 entry AG         line  4364 file /mnt/storage/home/zw18965/.conda/envs/p4env/share/psi4/basis/def2-universal-jkfit.gbs 

   => Loading Basis Set <=

    Name: DEF2-TZVPPD
    Role: ORBITAL
    Keyword: BASIS
    atoms 1-3 entry AG         line  2174 (ECP: line  3646) file /mnt/storage/home/zw18965/.conda/envs/p4env/share/psi4/basis/def2-tzvppd.gbs 

    !!!  WARNING: ECP capability is in beta. Please check occupations closely.  !!!

  Reading orbitals from file /tmp/Ag03N0_D3H.default.15236.180.npy, no projection.

  ==> Integral Setup <==

  DFHelper Memory: AOs need 0.177 GiB; user supplied 83.310 GiB. Using in-core AOs.

  ==> MemDFJK: Density-Fitted J/K Matrices <==

    J tasked:                   Yes
    K tasked:                    No
    wK tasked:                   No
    OpenMP threads:              28
    Memory [MiB]:             85309
    Algorithm:                 Core
    Schwarz Cutoff:           1E-12
    Mask sparsity (%):       1.4031
    Fitting Condition:        1E-10

   => Auxiliary Basis Set <=

  Basis Set: (DEF2-TZVPPD AUX)
    Blend: DEF2-UNIVERSAL-JKFIT
    Number of shells: 147
    Number of basis functions: 765
    Number of Cartesian functions: 1152
    Spherical Harmonics?: true
    Max angular momentum: 6

  Cached 100.0% of DFT collocation blocks in 0.509 [GiB].

  Minimum eigenvalue in the overlap matrix is 2.8280936164E-03.
  Reciprocal condition number of the overlap matrix is 5.9898154865E-04.
    Using symmetric orthogonalization.

  ==> Pre-Iterations <==

  SCF Guess: Orbitals guess was supplied from a previous computation.

   -------------------------------------------------------
    Irrep   Nso     Nmo     Nalpha   Nbeta   Ndocc  Nsocc
   -------------------------------------------------------
     A1        59      59      12      11      11       1
     A2        27      27       4       4       4       0
     B1        49      49       8       8       8       0
     B2        33      33       5       5       5       0
   -------------------------------------------------------
    Total     168     168      29      28      28       1
   -------------------------------------------------------

  ==> Iterations <==

                           Total Energy        Delta E     RMS |[F,P]|

   @DF-UKS iter   0:  -441.09301932703829   -4.41093e+02   8.77754e-04 
   @DF-UKS iter   1:  -441.09283796625573    1.81361e-04   7.19656e-05 DIIS
   @DF-UKS iter   2:  -441.09274244082644    9.55254e-05   1.86203e-04 DIIS
   @DF-UKS iter   3:  -441.09285952436198   -1.17084e-04   1.07065e-05 DIIS
   @DF-UKS iter   4:  -441.09286005441459   -5.30053e-07   5.06808e-06 DIIS
   @DF-UKS iter   5:  -441.09286015687985   -1.02465e-07   1.56051e-06 DIIS
   @DF-UKS iter   6:  -441.09286017201021   -1.51304e-08   8.19214e-07 DIIS
   @DF-UKS iter   7:  -441.09286017573345   -3.72324e-09   2.90820e-07 DIIS
   @DF-UKS iter   8:  -441.09286017600220   -2.68756e-10   1.08293e-07 DIIS
   @DF-UKS iter   9:  -441.09286017603790   -3.56977e-11   4.48063e-08 DIIS
   @DF-UKS iter  10:  -441.09286017604541   -7.50333e-12   5.58778e-09 DIIS
  Energy and wave function converged.


  ==> Post-Iterations <==

   Electrons on quadrature grid:
      Nalpha   =   28.9999999005 ; deviation = -9.947e-08
      Nbeta    =   27.9999996630 ; deviation = -3.370e-07
      Ntotal   =   56.9999995635 ; deviation = -4.365e-07 

   @Spin Contamination Metric:   1.533045042E-02
   @S^2 Expected:                7.500000000E-01
   @S^2 Observed:                7.653304504E-01
   @S   Expected:                5.000000000E-01
   @S   Observed:                5.000000000E-01

    Orbital Energies [Eh]
    ---------------------

    Alpha Occupied:                                                       

       1A1    -3.701382     1B1    -3.700956     2A1    -3.681323  
       3A1    -2.293924     2B1    -2.289150     4A1    -2.287874  
       3B1    -2.287261     1B2    -2.286764     1A2    -2.286312  
       5A1    -2.268908     4B1    -2.268011     2B2    -2.264743  
       6A1    -0.336110     7A1    -0.324151     3B2    -0.313441  
       5B1    -0.307962     8A1    -0.299144     4B2    -0.297779  
       2A2    -0.290120     6B1    -0.278537     3A2    -0.274874  
       7B1    -0.274046     9A1    -0.267405     4A2    -0.265148  
      10A1    -0.264375     5B2    -0.263341     8B1    -0.253639  
      11A1    -0.238578    12A1    -0.143574  

    Alpha Virtual:                                                        

       9B1    -0.131296     6B2    -0.056251    13A1    -0.035010  
      10B1    -0.020256    14A1    -0.018322     7B2     0.023760  
       5A2     0.029039    11B1     0.081697    15A1     0.085970  
      12B1     0.089063    16A1     0.109561    17A1     0.159469  
       8B2     0.167273    13B1     0.169909    18A1     0.173728  
      19A1     0.186749    14B1     0.187823     6A2     0.222018  
       9B2     0.228322    15B1     0.291307    20A1     0.339297  
      16B1     0.347879    21A1     0.348143    10B2     0.377928  
       7A2     0.383355    11B2     0.392323    22A1     0.484329  
      17B1     0.485960     8A2     0.525914    23A1     0.549796  
       9A2     0.584411    12B2     0.586430    18B1     0.589015  
      24A1     0.590455    19B1     0.673726    25A1     0.677557  
      20B1     0.725568    26A1     1.432905    21B1     1.497597  
      27A1     1.513065    28A1     1.518721    13B2     1.523646  
      14B2     1.546440    10A2     1.551384    29A1     1.558420  
      15B2     1.565919    22B1     1.567366    11A2     1.578974  
      12A2     1.581995    16B2     1.582221    23B1     1.586930  
      17B2     1.596392    30A1     1.597843    24B1     1.607544  
      18B2     1.613964    31A1     1.615220    25B1     1.616728  
      13A2     1.631703    26B1     1.655102    32A1     1.681633  
      27B1     1.693891    19B2     1.715793    33A1     1.716377  
      14A2     1.718668    34A1     1.743105    28B1     1.747388  
      29B1     1.907101    35A1     1.944985    36A1     2.032634  
      20B2     2.034230    15A2     2.049833    30B1     2.074340  
      21B2     2.078146    37A1     2.082672    16A2     2.093401  
      38A1     2.103680    17A2     2.114231    22B2     2.125352  
      31B1     2.130528    39A1     2.189201    32B1     2.202009  
      33B1     2.249326    40A1     2.374307    34B1     2.552664  
      41A1     2.562144    42A1     4.811101    43A1     4.818119  
      23B2     4.821105    35B1     4.831443    24B2     4.846365  
      44A1     4.847891    18A2     4.848583    25B2     4.857755  
      45A1     4.858568    36B1     4.867681    19A2     4.868521  
      26B2     4.882765    37B1     4.884208    20A2     4.916478  
      46A1     4.930767    27B2     4.934800    21A2     4.948092  
      38B1     4.948419    47A1     5.080759    39B1     5.087661  
      40B1     5.134431    48A1     5.617038    28B2     5.617499  
      22A2     5.617795    29B2     5.618276    41B1     5.618468  
      49A1     5.618573    42B1     5.619382    23A2     5.620016  
      50A1     5.620273    24A2     5.620885    30B2     5.621181  
      43B1     5.621881    51A1     5.622579    44B1     5.622647  
      25A2     5.623683    31B2     5.623740    52A1     5.626460  
      45B1     5.627867    53A1     5.639364    32B2     5.641380  
      26A2     5.641479    54A1     5.643124    33B2     5.643629  
      46B1     5.643904    27A2     5.644457    55A1     5.645892  
      47B1     5.648393    56A1    33.467717    48B1    33.796061  
      57A1    33.809545    58A1   110.860025    49B1   110.961730  
      59A1   110.973609  

    Beta Occupied:                                                        

       1A1    -3.700990     1B1    -3.700569     2A1    -3.680148  
       3A1    -2.293504     2B1    -2.289176     4A1    -2.287962  
       3B1    -2.286959     1B2    -2.286850     1A2    -2.286407  
       5A1    -2.269554     4B1    -2.267849     2B2    -2.265174  
       6A1    -0.335887     7A1    -0.321301     3B2    -0.312697  
       5B1    -0.304332     8A1    -0.296367     4B2    -0.296011  
       2A2    -0.288369     6B1    -0.277758     3A2    -0.274810  
       7B1    -0.273251     9A1    -0.263138     4A2    -0.261276  
      10A1    -0.259914     5B2    -0.258357     8B1    -0.248520  
      11A1    -0.226745  

    Beta Virtual:                                                         

       9B1    -0.121751    12A1    -0.102822     6B2    -0.046677  
      13A1    -0.019999    14A1    -0.002075    10B1     0.001120  
       5A2     0.031369     7B2     0.040332    11B1     0.080364  
      15A1     0.084330    12B1     0.091443    16A1     0.111333  
      17A1     0.156660    13B1     0.164243     8B2     0.164684  
      18A1     0.170493    19A1     0.180336    14B1     0.186178  
       6A2     0.221113     9B2     0.228866    15B1     0.292273  
      20A1     0.342346    16B1     0.349449    21A1     0.353606  
      10B2     0.385994     7A2     0.391145    11B2     0.394575  
      17B1     0.491227    22A1     0.495856     8A2     0.534683  
      23A1     0.549270     9A2     0.586518    18B1     0.591881  
      12B2     0.594214    24A1     0.595484    19B1     0.673844  
      25A1     0.676097    20B1     0.727595    26A1     1.434110  
      21B1     1.500759    27A1     1.515587    28A1     1.521670  
      13B2     1.524059    14B2     1.547991    10A2     1.554401  
      29A1     1.559183    15B2     1.566512    22B1     1.567381  
      11A2     1.579045    12A2     1.583218    16B2     1.583898  
      23B1     1.587459    30A1     1.597181    17B2     1.598219  
      24B1     1.607493    18B2     1.612943    25B1     1.615863  
      31A1     1.617563    13A2     1.632841    26B1     1.655829  
      32A1     1.680731    27B1     1.692130    19B2     1.712438  
      33A1     1.714791    14A2     1.718059    34A1     1.738506  
      28B1     1.743784    29B1     1.902932    35A1     1.944426  
      36A1     2.030371    20B2     2.032637    15A2     2.047897  
      30B1     2.072570    21B2     2.078055    37A1     2.078265  
      16A2     2.089592    38A1     2.101129    17A2     2.113370  
      22B2     2.122881    31B1     2.127295    39A1     2.186447  
      32B1     2.198481    33B1     2.247333    40A1     2.370296  
      34B1     2.551078    41A1     2.560289    42A1     4.812487  
      43A1     4.819666    23B2     4.822407    35B1     4.832857  
      24B2     4.848366    44A1     4.849897    18A2     4.850238  
      25B2     4.859439    45A1     4.860084    36B1     4.869404  
      19A2     4.870049    26B2     4.886748    37B1     4.888042  
      20A2     4.918200    46A1     4.932451    27B2     4.936860  
      38B1     4.949292    21A2     4.949316    47A1     5.081451  
      39B1     5.088310    40B1     5.134985    48A1     5.618280  
      28B2     5.618376    22A2     5.619094    49A1     5.619413  
      29B2     5.619436    41B1     5.619772    42B1     5.620898  
      23A2     5.621078    50A1     5.621685    24A2     5.621938  
      30B2     5.622398    43B1     5.623076    51A1     5.623711  
      44B1     5.624095    25A2     5.625108    31B2     5.625331  
      52A1     5.628274    45B1     5.628869    53A1     5.642069  
      26A2     5.644562    32B2     5.644767    54A1     5.646233  
      33B2     5.646817    46B1     5.647413    27A2     5.647884  
      55A1     5.649192    47B1     5.651005    56A1    33.458043  
      48B1    33.792239    57A1    33.794971    58A1   110.858425  
      49B1   110.961040    59A1   110.970778  

    Final Occupation by Irrep:
             A1    A2    B1    B2 
    DOCC [    11,    4,    8,    5 ]
    SOCC [     1,    0,    0,    0 ]

  @DF-UKS Final Energy:  -441.09286017604541

   => Energetics <=

    Nuclear Repulsion Energy =            213.4799456014520160
    One-Electron Energy =               -1210.1542546650712211
    Two-Electron Energy =                 598.1090627898930734
    DFT Exchange-Correlation Energy =     -42.5270173923192658
    Empirical Dispersion Energy =          -0.0005965100000000
    VV10 Nonlocal Energy =                  0.0000000000000000
    Total Energy =                       -441.0928601760453489

  UHF NO Occupations:
  HONO-2 :    8 B1 1.9986084
  HONO-1 :   11 A1 1.9958558
  HONO-0 :   12 A1 1.0000000
  LUNO+0 :   13 A1 0.0041442
  LUNO+1 :    9 B1 0.0013916
  LUNO+2 :   10 B1 0.0003710
  LUNO+3 :    6 B2 0.0003582


Computation Completed


Properties will be evaluated at   0.000000,   0.000000,   0.000000 [a0]

Properties computed using the SCF density matrix

  Nuclear Dipole Moment: [e a0]
     X:    -0.0000      Y:     0.0000      Z:     0.0000

  Electronic Dipole Moment: [e a0]
     X:     0.0000      Y:     0.0000      Z:    -0.4795

  Dipole Moment: [e a0]
     X:    -0.0000      Y:     0.0000      Z:    -0.4795     Total:     0.4795

  Dipole Moment: [D]
     X:    -0.0000      Y:     0.0000      Z:    -1.2187     Total:     1.2187


*** tstop() called on compute347.bc4.acrc.priv at Fri Nov  5 08:48:51 2021
Module time:
	user time   =     307.08 seconds =       5.12 minutes
	system time =       8.54 seconds =       0.14 minutes
	total time  =         16 seconds =       0.27 minutes
Total time:
	user time   =    3474.88 seconds =      57.91 minutes
	system time =      63.71 seconds =       1.06 minutes
	total time  =        451 seconds =       7.52 minutes

*** tstart() called on compute347.bc4.acrc.priv
*** at Fri Nov  5 08:48:51 2021


         ------------------------------------------------------------
                                   SCF GRAD                          
                          Rob Parrish, Justin Turney,                
                       Andy Simmonett, and Alex Sokolov              
         ------------------------------------------------------------

  ==> Geometry <==

    Molecular point group: c2v
    Full point group: C2v

    Geometry (in Angstrom), charge = 0, multiplicity = 2:

       Center              X                  Y                   Z               Mass       
    ------------   -----------------  -----------------  -----------------  -----------------
         AG           0.000000000000    -0.000000000000     1.596973766028   106.905091600000
         AG           1.302190603324     0.000000000000    -0.798486883014   106.905091600000
         AG          -1.302190603324    -0.000000000000    -0.798486883014   106.905091600000

  Nuclear repulsion =  213.479945601452016

  ==> Basis Set <==

  Basis Set: DEF2-TZVPPD
    Blend: DEF2-TZVPPD
    Number of shells: 48
    Number of basis functions: 168
    Number of Cartesian functions: 213
    Spherical Harmonics?: true
    Max angular momentum: 4

  Core potential: DEF2-TZVPPD
    Number of shells: 12
    Number of ECP primitives: 42
    Number of ECP core electrons: 84
    Max angular momentum: 3

  ==> DFJKGrad: Density-Fitted SCF Gradients <==

    Gradient:                    1
    J tasked:                  Yes
    K tasked:                   No
    wK tasked:                  No
    OpenMP threads:             28
    Integrals threads:          28
    Memory [MiB]:            85830
    Schwarz Cutoff:          1E-12
    Fitting Condition:       1E-10

   => Auxiliary Basis Set <=

  Basis Set: (DEF2-TZVPPD AUX)
    Blend: DEF2-UNIVERSAL-JKFIT
    Number of shells: 147
    Number of basis functions: 765
    Number of Cartesian functions: 1152
    Spherical Harmonics?: true
    Max angular momentum: 6

  ==> DFT Potential <==

   => Composite Functional: SCAN-D3BJ <= 

    SCAN Meta-GGA XC Functional
(10.1103/PhysRevLett.115.036402)
    J. Sun, A. Ruzsinszky, J. P. Perdew  Phys. Rev. Lett. 115, 036402, 2015


    Deriv               =              1
    GGA                 =           TRUE
    Meta                =           TRUE

    Exchange Hybrid     =          FALSE
    MP2 Hybrid          =          FALSE

   => Exchange Functionals <=

    1.0000   XC_MGGA_X_SCAN

   => Correlation Functionals <=

    1.0000   XC_MGGA_C_SCAN

   => LibXC Density Thresholds  <==

    XC_MGGA_C_SCAN:  1.00E-15 
    XC_MGGA_X_SCAN:  1.00E-15 

   => Molecular Quadrature <=

    Radial Scheme          =       TREUTLER
    Pruning Scheme         =           NONE
    Nuclear Scheme         =       TREUTLER

    BS radius alpha        =              1
    Pruning alpha          =              1
    Radial Points          =             75
    Spherical Points       =            302
    Total Points           =          62926
    Total Blocks           =            583
    Max Points             =            256
    Max Functions          =            165
    Weights Tolerance      =       1.00E-15


  -Total Gradient:
     Atom            X                  Y                   Z
    ------   -----------------  -----------------  -----------------
       1        0.000000000000     0.000000000000    -0.091839382006
       2       -0.127394318154    -0.000000000000     0.046019752997
       3        0.127394318154     0.000000000000     0.046019752997


*** tstop() called on compute347.bc4.acrc.priv at Fri Nov  5 08:49:03 2021
Module time:
	user time   =      95.57 seconds =       1.59 minutes
	system time =       2.88 seconds =       0.05 minutes
	total time  =         12 seconds =       0.20 minutes
Total time:
	user time   =    3573.05 seconds =      59.55 minutes
	system time =      66.70 seconds =       1.11 minutes
	total time  =        463 seconds =       7.72 minutes


  ==> Adding ECP gradient terms (computed numerically) <==

  -ECP Gradient:
     Atom            X                  Y                   Z
    ------   -----------------  -----------------  -----------------
       1        0.000000000000     0.000000000000     0.091180144549
       2        0.127248806704     0.000000000000    -0.045590072079
       3       -0.127248806704    -0.000000000000    -0.045590072079


  -Total Gradient:
     Atom            X                  Y                   Z
    ------   -----------------  -----------------  -----------------
       1        0.000000000000     0.000000000000    -0.000659237457
       2       -0.000145511451    -0.000000000000     0.000429680918
       3        0.000145511451     0.000000000000     0.000429680918


			-----------------------------------------
			 OPTKING 2.0: for geometry optimizations 
			  - R.A. King,  Bethel University        
			-----------------------------------------
	At level 1: Red. Int., RFO, no backsteps, dynamic trust

	Previous internal coordinate definitions found.
	---Fragment 1 Geometry and Gradient---
	 AG          0.0000000000       -0.0000000000        3.0178430473
	 AG          2.4607836034        0.0000000000       -1.5089215237
	 AG         -2.4607836034       -0.0000000000       -1.5089215237
	             0.0000000000        0.0000000000       -0.0006592375
	            -0.0001455115       -0.0000000000        0.0004296809
	             0.0001455115        0.0000000000        0.0004296809

	---Fragment 1 Intrafragment Coordinates---
	 - Coordinate -           - BOHR/RAD -       - ANG/DEG -
	 R(1,2)           =         5.152383	       2.726524
	 R(1,3)           =         5.152383	       2.726524
	 R(2,3)           =         4.921567	       2.604381
	 B(1,2,3)         =         1.072874	      61.471161
	 B(1,3,2)         =         1.072874	      61.471161
	 B(2,1,3)         =         0.995844	      57.057678

	Current energy   :      -441.0928601760

	Energy change for the previous step:
		Projected    :        -0.0015239499
		Actual       :        -0.0005946606

	Performing BFGS update.
	Previous computed or guess Hessian on step 1.
	Steps to be used in Hessian update: 2 1
	Taking RFO optimization step.
	Going to follow RFO solution 1.
	Using RFO vector 1.
	Norm of target step-size    0.01585
	Projected energy change by RFO approximation:        -0.0000184402

	Back-transformation to cartesian coordinates...
	Successfully converged to displaced geometry.

	--- Internal Coordinate Step in ANG or DEG, aJ/ANG or AJ/DEG ---
	 ---------------------------------------------------------------------------
	   Coordinate                Previous        Force       Change         New 
	   ----------                --------       ------       ------       ------
[...]
      34App    2.034272    35App    2.050107    66Ap     2.074564  
      36App    2.078456    67Ap     2.082758    37App    2.093381  
      68Ap     2.103977    38App    2.114270    39App    2.125240  
      69Ap     2.132474    70Ap     2.186533    71Ap     2.199805  
      72Ap     2.249477    73Ap     2.373799    74Ap     2.550983  
      75Ap     2.560452    76Ap     4.811929    77Ap     4.818249  
      40App    4.821075    78Ap     4.832273    41App    4.847190  
      79Ap     4.848223    42App    4.849482    43App    4.857956  
      80Ap     4.858732    81Ap     4.867887    44App    4.868637  
      45App    4.882929    82Ap     4.884351    46App    4.915744  
      83Ap     4.929452    47App    4.933566    48App    4.948133  
      84Ap     4.948461    85Ap     5.078010    86Ap     5.084669  
      87Ap     5.134862    88Ap     5.617158    49App    5.617600  
      50App    5.617918    51App    5.618352    89Ap     5.618597  
      90Ap     5.618651    91Ap     5.619449    52App    5.620108  
      92Ap     5.620352    53App    5.620959    54App    5.621260  
      93Ap     5.621957    94Ap     5.622649    95Ap     5.622729  
      55App    5.623764    56App    5.623864    96Ap     5.626482  
      97Ap     5.628016    98Ap     5.639611    57App    5.641642  
      58App    5.641675    99Ap     5.643317    59App    5.643823  
     100Ap     5.644076    60App    5.644652   101Ap     5.645990  
     102Ap     5.648563   103Ap    33.466195   104Ap    33.794226  
     105Ap    33.807052   106Ap   110.859678   107Ap   110.961212  
     108Ap   110.972923  

    Beta Occupied:                                                        

       1Ap    -3.700896     2Ap    -3.700469     3Ap    -3.679883  
       4Ap    -2.293406     5Ap    -2.289053     6Ap    -2.287853  
       7Ap    -2.286865     1App   -2.286765     2App   -2.286316  
       8Ap    -2.269281     9Ap    -2.267595     3App   -2.264958  
      10Ap    -0.335485    11Ap    -0.321150     4App   -0.312488  
      12Ap    -0.303750    13Ap    -0.296180     5App   -0.295847  
       6App   -0.288121    14Ap    -0.277614     7App   -0.274703  
      15Ap    -0.273149    16Ap    -0.263014     8App   -0.261184  
      17Ap    -0.259891     9App   -0.258305    18Ap    -0.248594  
      19Ap    -0.226509  

    Beta Virtual:                                                         

      20Ap    -0.121691    21Ap    -0.103005    10App   -0.046593  
      22Ap    -0.019975    23Ap    -0.002286    24Ap     0.001121  
      11App    0.031393    12App    0.040173    25Ap     0.080330  
      26Ap     0.084137    27Ap     0.091317    28Ap     0.111333  
      29Ap     0.156668    30Ap     0.164257    13App    0.164807  
      31Ap     0.170470    32Ap     0.180220    33Ap     0.186284  
      14App    0.221192    15App    0.228733    34Ap     0.291851  
      35Ap     0.341137    36Ap     0.349272    37Ap     0.353476  
      16App    0.385707    17App    0.391004    18App    0.394228  
      38Ap     0.490996    39Ap     0.495568    19App    0.534456  
      40Ap     0.548995    20App    0.586475    41Ap     0.591398  
      21App    0.593863    42Ap     0.595153    43Ap     0.673906  
      44Ap     0.675909    45Ap     0.727250    46Ap     1.433579  
      47Ap     1.503746    48Ap     1.516356    49Ap     1.523628  
      22App    1.524021    23App    1.548405    24App    1.555192  
      50Ap     1.559336    25App    1.566592    51Ap     1.567492  
      26App    1.579077    27App    1.583345    28App    1.583519  
      52Ap     1.587562    53Ap     1.596463    29App    1.598344  
      54Ap     1.607388    30App    1.613161    55Ap     1.615688  
      56Ap     1.616616    31App    1.632228    57Ap     1.654313  
      58Ap     1.680078    59Ap     1.692351    32App    1.711414  
      60Ap     1.715056    33App    1.717878    61Ap     1.737693  
      62Ap     1.743029    63Ap     1.902294    64Ap     1.943755  
      65Ap     2.030596    34App    2.032668    35App    2.048158  
      66Ap     2.072785    67Ap     2.078338    36App    2.078354  
      37App    2.089541    68Ap     2.101453    38App    2.113425  
      39App    2.122738    69Ap     2.129262    70Ap     2.183790  
      71Ap     2.196153    72Ap     2.247527    73Ap     2.369790  
      74Ap     2.549381    75Ap     2.558557    76Ap     4.813291  
      77Ap     4.819795    40App    4.822374    78Ap     4.833688  
      41App    4.849163    79Ap     4.850242    42App    4.851128  
      43App    4.859641    80Ap     4.860241    81Ap     4.869592  
      44App    4.870159    45App    4.886930    82Ap     4.888218  
      46App    4.917481    83Ap     4.931143    47App    4.935623  
      84Ap     4.949325    48App    4.949341    85Ap     5.078696  
      86Ap     5.085306    87Ap     5.135415    88Ap     5.618393  
      49App    5.618469    50App    5.619208    89Ap     5.619490  
      51App    5.619517    90Ap     5.619896    91Ap     5.620963  
      52App    5.621170    92Ap     5.621747    53App    5.622007  
      54App    5.622478    93Ap     5.623134    94Ap     5.623777  
      95Ap     5.624179    55App    5.625199    56App    5.625435  
      96Ap     5.628293    97Ap     5.629012    98Ap     5.642319  
      57App    5.644761    58App    5.645040    99Ap     5.646444  
      59App    5.647013   100Ap     5.647592    60App    5.648104  
     101Ap     5.649310   102Ap     5.651174   103Ap    33.456440  
     104Ap    33.790415   105Ap    33.792454   106Ap   110.858066  
     107Ap   110.960523   108Ap   110.970083  

    Final Occupation by Irrep:
             Ap   App 
    DOCC [    19,    9 ]
    SOCC [     1,    0 ]

  @DF-UKS Final Energy:  -441.09284813808870

   => Energetics <=

    Nuclear Repulsion Energy =            213.1376571994887854
    One-Electron Energy =               -1209.4788719770017451
    Two-Electron Energy =                 597.7753525804865831
    DFT Exchange-Correlation Energy =     -42.5263895110621633
    Empirical Dispersion Energy =          -0.0005964300000000
    VV10 Nonlocal Energy =                  0.0000000000000000
    Total Energy =                       -441.0928481380885273

  UHF NO Occupations:
  HONO-2 :   18 Ap 1.9986252
  HONO-1 :   19 Ap 1.9958524
  HONO-0 :   20 Ap 1.0000000
  LUNO+0 :   21 Ap 0.0041476
  LUNO+1 :   22 Ap 0.0013748
  LUNO+2 :   23 Ap 0.0003692
  LUNO+3 :   10App 0.0003569


Computation Completed


Properties will be evaluated at   0.000000,   0.000000,   0.000000 [a0]

Properties computed using the SCF density matrix

  Nuclear Dipole Moment: [e a0]
     X:     0.0000      Y:     0.0000      Z:    -0.0000

  Electronic Dipole Moment: [e a0]
     X:    -0.0014      Y:     0.0000      Z:    -0.4802

  Dipole Moment: [e a0]
     X:    -0.0014      Y:     0.0000      Z:    -0.4802     Total:     0.4803

  Dipole Moment: [D]
     X:    -0.0034      Y:     0.0000      Z:    -1.2207     Total:     1.2207


*** tstop() called on compute347.bc4.acrc.priv at Fri Nov  5 09:45:52 2021
Module time:
	user time   =     546.30 seconds =       9.10 minutes
	system time =      16.84 seconds =       0.28 minutes
	total time  =         26 seconds =       0.43 minutes
Total time:
	user time   =   27594.70 seconds =     459.91 minutes
	system time =     399.16 seconds =       6.65 minutes
	total time  =       3872 seconds =      64.53 minutes

*** tstart() called on compute347.bc4.acrc.priv
*** at Fri Nov  5 09:45:52 2021


         ------------------------------------------------------------
                                   SCF GRAD                          
                          Rob Parrish, Justin Turney,                
                       Andy Simmonett, and Alex Sokolov              
         ------------------------------------------------------------

  ==> Geometry <==

    Molecular point group: cs
    Full point group: Cs

    Geometry (in Angstrom), charge = 0, multiplicity = 2:

       Center              X                  Y                   Z               Mass       
    ------------   -----------------  -----------------  -----------------  -----------------
         AG          -0.000142949883     0.000000000000     1.602472708051   106.905091600000
         AG           1.301898725523     0.000000000000    -0.801368326193   106.905091600000
         AG          -1.301755775640     0.000000000000    -0.801104381858   106.905091600000

  Nuclear repulsion =  213.137657199488785

  ==> Basis Set <==

  Basis Set: DEF2-TZVPPD
    Blend: DEF2-TZVPPD
    Number of shells: 48
    Number of basis functions: 168
    Number of Cartesian functions: 213
    Spherical Harmonics?: true
    Max angular momentum: 4

  Core potential: DEF2-TZVPPD
    Number of shells: 12
    Number of ECP primitives: 42
    Number of ECP core electrons: 84
    Max angular momentum: 3

  ==> DFJKGrad: Density-Fitted SCF Gradients <==

    Gradient:                    1
    J tasked:                  Yes
    K tasked:                   No
    wK tasked:                  No
    OpenMP threads:             28
    Integrals threads:          28
    Memory [MiB]:            85830
    Schwarz Cutoff:          1E-12
    Fitting Condition:       1E-10

   => Auxiliary Basis Set <=

  Basis Set: (DEF2-TZVPPD AUX)
    Blend: DEF2-UNIVERSAL-JKFIT
    Number of shells: 147
    Number of basis functions: 765
    Number of Cartesian functions: 1152
    Spherical Harmonics?: true
    Max angular momentum: 6

  ==> DFT Potential <==

   => Composite Functional: SCAN-D3BJ <= 

    SCAN Meta-GGA XC Functional
(10.1103/PhysRevLett.115.036402)
    J. Sun, A. Ruzsinszky, J. P. Perdew  Phys. Rev. Lett. 115, 036402, 2015


    Deriv               =              1
    GGA                 =           TRUE
    Meta                =           TRUE

    Exchange Hybrid     =          FALSE
    MP2 Hybrid          =          FALSE

   => Exchange Functionals <=

    1.0000   XC_MGGA_X_SCAN

   => Correlation Functionals <=

    1.0000   XC_MGGA_C_SCAN

   => LibXC Density Thresholds  <==

    XC_MGGA_C_SCAN:  1.00E-15 
    XC_MGGA_X_SCAN:  1.00E-15 

   => Molecular Quadrature <=

    Radial Scheme          =       TREUTLER
    Pruning Scheme         =           NONE
    Nuclear Scheme         =       TREUTLER

    BS radius alpha        =              1
    Pruning alpha          =              1
    Radial Points          =             75
    Spherical Points       =            302
    Total Points           =          62929
    Total Blocks           =            584
    Max Points             =            256
    Max Functions          =            165
    Weights Tolerance      =       1.00E-15


  -Total Gradient:
     Atom            X                  Y                   Z
    ------   -----------------  -----------------  -----------------
       1       -0.000056214835     0.000000000000    -0.089804898937
       2       -0.127011692482     0.000000000000     0.044909000910
       3        0.127077577246     0.000000000000     0.045044242692


*** tstop() called on compute347.bc4.acrc.priv at Fri Nov  5 09:46:03 2021
Module time:
	user time   =      96.18 seconds =       1.60 minutes
	system time =       3.23 seconds =       0.05 minutes
	total time  =         11 seconds =       0.18 minutes
Total time:
	user time   =   27694.08 seconds =     461.57 minutes
	system time =     402.53 seconds =       6.71 minutes
	total time  =       3883 seconds =      64.72 minutes


  ==> Adding ECP gradient terms (computed numerically) <==

  -ECP Gradient:
     Atom            X                  Y                   Z
    ------   -----------------  -----------------  -----------------
       1        0.000069355354     0.000000000000     0.089811847997
       2        0.126988281496     0.000000000000    -0.044844891889
       3       -0.127057636092     0.000000000000    -0.044966956144


  -Total Gradient:
     Atom            X                  Y                   Z
    ------   -----------------  -----------------  -----------------
       1        0.000013140519     0.000000000000     0.000006949060
       2       -0.000023410985     0.000000000000     0.000064109021
       3        0.000019941154     0.000000000000     0.000077286548


         ----------------------------------------------------------
                                   FINDIF
                     R. A. King and Jonathon Misiewicz
         ---------------------------------------------------------

  Computing second-derivative from gradients using projected, 
  symmetry-adapted, cartesian coordinates.

  6 gradients passed in, including the reference geometry.
  Generating complete list of displacements from unique ones.

    Operation 2 takes plus displacements of irrep B1 to minus ones.

-------------------------------------------------------------


  ==> Harmonic Vibrational Analysis <==

  non-mass-weighted Hessian:       Symmetric? True   Hermitian? True   Lin Dep Dim?  6 (0)
  projection of translations (True) and rotations (True) removed 6 degrees of freedom (6)
  total projector:                 Symmetric? True   Hermitian? True   Lin Dep Dim?  6 (6)
  mass-weighted Hessian:           Symmetric? True   Hermitian? True   Lin Dep Dim?  6 (0)
  pre-proj  low-frequency mode:    0.0000i [cm^-1]
  pre-proj  low-frequency mode:    0.0000i [cm^-1]
  pre-proj  low-frequency mode:    0.0000i [cm^-1]
  pre-proj  low-frequency mode:    0.0000i [cm^-1]
  pre-proj  low-frequency mode:    0.0000  [cm^-1]
  pre-proj  low-frequency mode:    0.0000  [cm^-1]
  pre-proj  low-frequency mode:    0.0000  [cm^-1]
  pre-proj  all modes:['27.8163i' '0.0000i' '0.0000i' '0.0000i' '0.0000' '0.0000' '0.0000'
 '119.3933' '173.1887']
  projected mass-weighted Hessian: Symmetric? True   Hermitian? True   Lin Dep Dim?  6 (6)
  post-proj low-frequency mode:   27.8163i [cm^-1] (V)
  post-proj low-frequency mode:    0.0000i [cm^-1] (TR)
  post-proj low-frequency mode:    0.0000i [cm^-1] (TR)
  post-proj low-frequency mode:    0.0000i [cm^-1] (TR)
  post-proj low-frequency mode:    0.0000  [cm^-1] (TR)
  post-proj low-frequency mode:    0.0000  [cm^-1] (TR)
  post-proj low-frequency mode:    0.0000  [cm^-1] (TR)
  post-proj  all modes:['27.8163i' '0.0000i' '0.0000i' '0.0000i' '0.0000' '0.0000' '0.0000'
 '119.3933' '173.1887']

  Vibration                       1                   8                   9           
  Freq [cm^-1]                 27.8163i            119.3933            173.1887       
  Irrep                           B1                  A1                  A1          
  Reduced mass [u]             106.9051            106.9051            106.9051       
  Force const [mDyne/A]        -0.0487              0.8979              1.8892        
  Turning point v=0 [a0]        0.0000              0.0971              0.0806        
  RMS dev v=0 [a0 u^1/2]        0.0000              0.7101              0.5896        
  Char temp [K]                 0.0000             171.7804            249.1800       
  ----------------------------------------------------------------------------------
      1   AG               0.56  0.00 -0.00    0.00  0.00  0.76   -0.00 -0.00  0.31   
      2   AG              -0.28 -0.00  0.52   -0.27 -0.00 -0.38    0.65  0.00 -0.15   
      3   AG              -0.28 -0.00 -0.52    0.27  0.00 -0.38   -0.65 -0.00 -0.15   

  ==> Thermochemistry Components <==

  Entropy, S
    Electronic S            1.377 [cal/(mol K)]        5.763 [J/(mol K)]       0.00219507 [mEh/K] (multiplicity = 2)
    Translational S        43.192 [cal/(mol K)]      180.714 [J/(mol K)]       0.06883047 [mEh/K] (mol. weight = 320.7153 [u], P = 101325.00 [Pa])
    Rotational S           28.666 [cal/(mol K)]      119.937 [J/(mol K)]       0.04568174 [mEh/K] (symmetry no. = 2)
    Vibrational S           5.511 [cal/(mol K)]       23.057 [J/(mol K)]       0.00878195 [mEh/K]
  Total S                  78.746 [cal/(mol K)]      329.472 [J/(mol K)]       0.12548924 [mEh/K]
  Correction S              0.000 [cal/(mol K)]        0.000 [J/(mol K)]       0.00000000 [mEh/K]

  Constant volume heat capacity, Cv
    Electronic Cv           0.000 [cal/(mol K)]        0.000 [J/(mol K)]       0.00000000 [mEh/K]
    Translational Cv        2.981 [cal/(mol K)]       12.472 [J/(mol K)]       0.00475022 [mEh/K]
    Rotational Cv           2.981 [cal/(mol K)]       12.472 [J/(mol K)]       0.00475022 [mEh/K]
    Vibrational Cv          3.809 [cal/(mol K)]       15.935 [J/(mol K)]       0.00606939 [mEh/K]
  Total Cv                  9.770 [cal/(mol K)]       40.879 [J/(mol K)]       0.01556982 [mEh/K]
  Correction Cv             0.000 [cal/(mol K)]        0.000 [J/(mol K)]       0.00000000 [mEh/K]

  Constant pressure heat capacity, Cp
    Electronic Cp           0.000 [cal/(mol K)]        0.000 [J/(mol K)]       0.00000000 [mEh/K]
    Translational Cp        4.968 [cal/(mol K)]       20.786 [J/(mol K)]       0.00791703 [mEh/K]
    Rotational Cp           2.981 [cal/(mol K)]       12.472 [J/(mol K)]       0.00475022 [mEh/K]
    Vibrational Cp          3.809 [cal/(mol K)]       15.935 [J/(mol K)]       0.00606939 [mEh/K]
  Total Cp                 11.757 [cal/(mol K)]       49.193 [J/(mol K)]       0.01873663 [mEh/K]
  Correction Cp             0.000 [cal/(mol K)]        0.000 [J/(mol K)]       0.00000000 [mEh/K]

  ==> Thermochemistry Energy Analysis <==

  Raw electronic energy, E0
  Total E0, Electronic energy at well bottom at 0 [K]                 -441.09284816 [Eh]

  Zero-point energy, ZPE_vib = Sum_i nu_i / 2
    Electronic ZPE          0.000 [kcal/mol]        0.000 [kJ/mol]       0.00000000 [Eh]
    Translational ZPE       0.000 [kcal/mol]        0.000 [kJ/mol]       0.00000000 [Eh]
    Rotational ZPE          0.000 [kcal/mol]        0.000 [kJ/mol]       0.00000000 [Eh]
    Vibrational ZPE         0.418 [kcal/mol]        1.750 [kJ/mol]       0.00066655 [Eh]         146.291 [cm^-1]
  Correction ZPE            0.418 [kcal/mol]        1.750 [kJ/mol]       0.00066655 [Eh]         146.291 [cm^-1]
  Total ZPE, Electronic energy at 0 [K]                               -441.09218161 [Eh]

  Thermal Energy, E (includes ZPE)
    Electronic E            0.000 [kcal/mol]        0.000 [kJ/mol]       0.00000000 [Eh]
    Translational E         0.889 [kcal/mol]        3.718 [kJ/mol]       0.00141628 [Eh]
    Rotational E            0.889 [kcal/mol]        3.718 [kJ/mol]       0.00141628 [Eh]
    Vibrational E           1.235 [kcal/mol]        5.169 [kJ/mol]       0.00196867 [Eh]
  Correction E              3.013 [kcal/mol]       12.606 [kJ/mol]       0.00480123 [Eh]
  Total E, Electronic energy at  298.15 [K]                           -441.08804693 [Eh]

  Enthalpy, H_trans = E_trans + k_B * T
    Electronic H            0.000 [kcal/mol]        0.000 [kJ/mol]       0.00000000 [Eh]
    Translational H         1.481 [kcal/mol]        6.197 [kJ/mol]       0.00236046 [Eh]
    Rotational H            0.889 [kcal/mol]        3.718 [kJ/mol]       0.00141628 [Eh]
    Vibrational H           1.235 [kcal/mol]        5.169 [kJ/mol]       0.00196867 [Eh]
  Correction H              3.605 [kcal/mol]       15.085 [kJ/mol]       0.00574541 [Eh]
  Total H, Enthalpy at  298.15 [K]                                    -441.08710274 [Eh]

  Gibbs free energy, G = H - T * S
    Electronic G           -0.411 [kcal/mol]       -1.718 [kJ/mol]      -0.00065446 [Eh]
    Translational G       -11.396 [kcal/mol]      -47.683 [kJ/mol]      -0.01816134 [Eh]
    Rotational G           -7.658 [kcal/mol]      -32.041 [kJ/mol]      -0.01220374 [Eh]
    Vibrational G          -0.408 [kcal/mol]       -1.706 [kJ/mol]      -0.00064967 [Eh]
  Correction G            -19.873 [kcal/mol]      -83.147 [kJ/mol]      -0.03166920 [Eh]
  Total G, Free enthalpy at  298.15 [K]                               -441.12451736 [Eh]

    Psi4 stopped on: Friday, 05 November 2021 09:49AM
    Psi4 wall time for execution: 1:07:49.08

*** Psi4 exiting successfully. Buy a developer a beer!
