Too many bad steps.
Optimizer: Optimization complete!
 6 displacements needed.
 1 2 3 4 5 6
Warning: thermodynamics relations excluded imaginary frequencies: ['34.7327i' '34.7278i']
Warning: used thermodynamics relations inappropriate for low-frequency modes: ['83.7298' '138.7705']
At level 1: Red. Int., RFO, no backsteps, dynamic trust
At level 1: Red. Int., RFO, no backsteps, dynamic trust
At level 1: Red. Int., RFO, no backsteps, dynamic trust
At level 1: Red. Int., RFO, no backsteps, dynamic trust
At level 1: Red. Int., RFO, no backsteps, dynamic trust
At level 2: Red. Int., RFO, backsteps, smaller trust.
At level 2: Red. Int., RFO, backsteps, smaller trust.
At level 2: Red. Int., RFO, backsteps, smaller trust.
At level 2: Red. Int., RFO, backsteps, smaller trust.
At level 2: Red. Int., RFO, backsteps, smaller trust.
At level 2: Red. Int., RFO, backsteps, smaller trust.
At level 2: Red. Int., RFO, backsteps, smaller trust.
Janssen, E. F. Valeev, M. L. Leininger,
    J. F. Gonthier, R. M. Richard, H. R. McAlexander, M. Saitow, X. Wang,
    P. Verma, and M. H. Lechner

             Previous Authors, Complete List of Code Contributors,
                       and Citations for Specific Modules
    https://github.com/psi4/psi4/blob/master/codemeta.json
    https://github.com/psi4/psi4/graphs/contributors
    http://psicode.org/psi4manual/master/introduction.html#citing-psifour

    -----------------------------------------------------------------------


    Psi4 started on: Tuesday, 02 November 2021 04:42PM

    Process ID: 13312
    Host:       compute450.bc4.acrc.priv
    PSIDATADIR: /mnt/storage/home/zw18965/.conda/envs/p4env/share/psi4
    Memory:     500.0 MiB
    Threads:    28
    
  ==> Input File <==

--------------------------------------------------------------------------
memory 144 GB

molecule {
1 1
Ag       0.000000    0.000000    0.000000 
Ag       0.000000    0.000000    2.629319 
Ag       0.000000    0.000000   -2.629319 
 }

set dynamic_level 1
set basis Def2-TZVPPD

optimize("SCAN-D3BJ")
frequencies("SCAN-D3BJ")
--------------------------------------------------------------------------

  Memory set to 134.110 GiB by Python driver.

Scratch directory: /tmp/
gradient() will perform analytic gradient computation.

*** tstart() called on compute450.bc4.acrc.priv
*** at Tue Nov  2 16:42:57 2021

   => Loading Basis Set <=

    Name: DEF2-TZVPPD
    Role: ORBITAL
    Keyword: BASIS
    atoms 1-3 entry AG         line  2174 (ECP: line  3646) file /mnt/storage/home/zw18965/.conda/envs/p4env/share/psi4/basis/def2-tzvppd.gbs 

    !!!  WARNING: ECP capability is in beta. Please check occupations closely.  !!!

   => SCAN-D3(BJ): Empirical Dispersion <=

    Grimme's -D3 (BJ-damping) Dispersion Correction
    Grimme S.; Ehrlich S.; Goerigk L. (2011), J. Comput. Chem., 32: 1456
    Parametrisation from:    J.G. Brandenburg, J. E. Bates, J. Sun, J.P. Perdew, Phys. Rev. B 94, 115144, 2016

        s6 =       1.000000
        s8 =       0.000000
        a1 =       0.538000
        a2 =       5.420000


         ---------------------------------------------------------
                                   SCF
               by Justin Turney, Rob Parrish, Andy Simmonett
                          and Daniel G. A. Smith
                              RKS Reference
                       28 Threads, 137329 MiB Core
         ---------------------------------------------------------

  ==> Geometry <==

    Molecular point group: d2h
    Full point group: D_inf_h

    Geometry (in Angstrom), charge = 1, multiplicity = 1:

       Center              X                  Y                   Z               Mass       
    ------------   -----------------  -----------------  -----------------  -----------------
         AG           0.000000000000     0.000000000000     0.000000000000   106.905091600000
         AG           0.000000000000     0.000000000000     2.629319000000   106.905091600000
         AG           0.000000000000     0.000000000000    -2.629319000000   106.905091600000

  Running in d2h symmetry.

  Rotational constants: A = ************  B =      0.01140  C =      0.01140 [cm^-1]
  Rotational constants: A = ************  B =    341.90248  C =    341.90248 [MHz]
  Nuclear repulsion =  181.637310889121807

  Charge       = 1
  Multiplicity = 1
  Electrons    = 56
  Nalpha       = 28
  Nbeta        = 28

  ==> Algorithm <==

  SCF Algorithm Type is DF.
  DIIS enabled.
  MOM disabled.
  Fractional occupation disabled.
  Guess Type is SAD.
  Energy threshold   = 1.00e-08
  Density threshold  = 1.00e-08
  Integral threshold = 1.00e-12

  ==> Primary Basis <==

  Basis Set: DEF2-TZVPPD
    Blend: DEF2-TZVPPD
    Number of shells: 48
    Number of basis functions: 168
    Number of Cartesian functions: 213
    Spherical Harmonics?: true
    Max angular momentum: 4

  Core potential: DEF2-TZVPPD
    Number of shells: 12
    Number of ECP primitives: 42
    Number of ECP core electrons: 84
    Max angular momentum: 3

  ==> DFT Potential <==

   => Composite Functional: SCAN-D3BJ <= 

    SCAN Meta-GGA XC Functional
(10.1103/PhysRevLett.115.036402)
    J. Sun, A. Ruzsinszky, J. P. Perdew  Phys. Rev. Lett. 115, 036402, 2015


    Deriv               =              1
    GGA                 =           TRUE
    Meta                =           TRUE

    Exchange Hybrid     =          FALSE
    MP2 Hybrid          =          FALSE

   => Exchange Functionals <=

    1.0000   XC_MGGA_X_SCAN

   => Correlation Functionals <=

    1.0000   XC_MGGA_C_SCAN

   => LibXC Density Thresholds  <==

    XC_MGGA_C_SCAN:  1.00E-15 
    XC_MGGA_X_SCAN:  1.00E-15 

   => Molecular Quadrature <=

    Radial Scheme          =       TREUTLER
    Pruning Scheme         =           NONE
    Nuclear Scheme         =       TREUTLER

    BS radius alpha        =              1
    Pruning alpha          =              1
    Radial Points          =             75
    Spherical Points       =            302
    Total Points           =          62720
    Total Blocks           =            621
    Max Points             =            256
    Max Functions          =            148
    Weights Tolerance      =       1.00E-15

   => Loading Basis Set <=

    Name: (DEF2-TZVPPD AUX)
    Role: JKFIT
    Keyword: DF_BASIS_SCF
    atoms 1-3 entry AG         line  4364 file /mnt/storage/home/zw18965/.conda/envs/p4env/share/psi4/basis/def2-universal-jkfit.gbs 

  ==> Integral Setup <==

  DFHelper Memory: AOs need 0.158 GiB; user supplied 100.122 GiB. Using in-core AOs.

  ==> MemDFJK: Density-Fitted J/K Matrices <==

    J tasked:                   Yes
    K tasked:                    No
    wK tasked:                   No
    OpenMP threads:              28
    Memory [MiB]:            102525
    Algorithm:                 Core
    Schwarz Cutoff:           1E-12
    Mask sparsity (%):      12.9535
    Fitting Condition:        1E-10

   => Auxiliary Basis Set <=

  Basis Set: (DEF2-TZVPPD AUX)
    Blend: DEF2-UNIVERSAL-JKFIT
    Number of shells: 147
    Number of basis functions: 765
    Number of Cartesian functions: 1152
    Spherical Harmonics?: true
    Max angular momentum: 6

  Cached 100.0% of DFT collocation blocks in 0.460 [GiB].

  Minimum eigenvalue in the overlap matrix is 1.4961164880E-03.
  Reciprocal condition number of the overlap matrix is 3.7656861840E-04.
    Using symmetric orthogonalization.

  ==> Pre-Iterations <==

  SCF Guess: Superposition of Atomic Densities via on-the-fly atomic UHF (no occupation information).

   -------------------------
    Irrep   Nso     Nmo    
   -------------------------
     Ag        38      38 
     B1g       12      12 
     B2g       18      18 
     B3g       18      18 
     Au         9       9 
     B1u       31      31 
     B2u       21      21 
     B3u       21      21 
   -------------------------
    Total     168     168
   -------------------------

  ==> Iterations <==

                           Total Energy        Delta E     RMS |[F,P]|

   @DF-RKS iter SAD:  -440.39364487627012   -4.40394e+02   0.00000e+00 
   @DF-RKS iter   1:  -440.80222189723628   -4.08577e-01   2.94496e-03 DIIS
   @DF-RKS iter   2:  -440.76305972411666    3.91622e-02   5.57533e-03 DIIS
   @DF-RKS iter   3:  -440.81959049151254   -5.65308e-02   9.89972e-04 DIIS
   @DF-RKS iter   4:  -440.82064308488754   -1.05259e-03   2.09177e-04 DIIS
   @DF-RKS iter   5:  -440.82068601103339   -4.29261e-05   6.12217e-05 DIIS
   @DF-RKS iter   6:  -440.82069151838795   -5.50735e-06   1.93500e-05 DIIS
   @DF-RKS iter   7:  -440.82069211361699   -5.95229e-07   2.89193e-06 DIIS
   @DF-RKS iter   8:  -440.82069213156950   -1.79525e-08   1.66887e-07 DIIS
   @DF-RKS iter   9:  -440.82069213161770   -4.82032e-11   2.62598e-08 DIIS
   @DF-RKS iter  10:  -440.82069213161930   -1.59162e-12   1.35571e-09 DIIS
  Energy and wave function converged.


  ==> Post-Iterations <==

   Electrons on quadrature grid:
      Ntotal   =   55.9999660403 ; deviation = -3.396e-05 

    Orbital Energies [Eh]
    ---------------------

    Doubly Occupied:                                                      

       1Ag    -3.888382     1B1u   -3.888380     2Ag    -3.857539  
       2B1u   -2.479690     3Ag    -2.479377     1B2u   -2.476375  
       1B3u   -2.476375     1B3g   -2.476373     1B2g   -2.476373  
       3B1u   -2.450273     2B2u   -2.441834     2B3u   -2.441834  
       4Ag    -0.519054     2B3g   -0.493231     2B2g   -0.493231  
       4B1u   -0.486129     3B2u   -0.482246     3B3u   -0.482246  
       1B1g   -0.477920     5Ag    -0.477917     1Au    -0.477451  
       5B1u   -0.477448     2B1g   -0.440579     6Ag    -0.440571  
       3B3g   -0.439080     3B2g   -0.439080     7Ag    -0.435975  
       8Ag    -0.379774  

    Virtual:                                                              

       6B1u   -0.344295     9Ag    -0.251261     4B2u   -0.194522  
       4B3u   -0.194522     7B1u   -0.170346     4B3g   -0.149171  
       4B2g   -0.149171     5B2u   -0.079405     5B3u   -0.079405  
      10Ag    -0.052942    11Ag    -0.035402     8B1u   -0.020025  
       9B1u    0.006413     6B3u    0.033715     6B2u    0.033715  
      12Ag     0.046293     5B3g    0.064877     5B2g    0.064877  
       7B2u    0.107042     7B3u    0.107042    13Ag     0.126714  
      10B1u    0.127065    14Ag     0.190749     3B1g    0.190753  
       6B3g    0.216972     6B2g    0.216972     2Au     0.234158  
      11B1u    0.234159    12B1u    0.254375     4B1g    0.320952  
      15Ag     0.320957     8B2u    0.328179     8B3u    0.328179  
      16Ag     0.434164    13B1u    0.501697     7B2g    0.510619  
       7B3g    0.510619    17Ag     0.587316    14B1u    1.254995  
       9B2u    1.332577     9B3u    1.332577     3Au     1.371732  
      15B1u    1.371875    10B2u    1.378460    10B3u    1.378460  
       8B3g    1.378479     8B2g    1.378479     5B1g    1.378521  
      18Ag     1.378658     9B3g    1.393628     9B2g    1.393628  
      19Ag     1.402953    11B2u    1.403071    11B3u    1.403071  
       4Au     1.419587    16B1u    1.419762    12B3u    1.422284  
      12B2u    1.422284    13B2u    1.435003    13B3u    1.435003  
      17B1u    1.465896    10B3g    1.469511    10B2g    1.469511  
      20Ag     1.476756    18B1u    1.547031    14B2u    1.554228  
      14B3u    1.554228    21Ag     1.688858    19B1u    1.743272  
      22Ag     1.827513     6B1g    1.827552    20B1u    1.834579  
       5Au     1.834614    11B3g    1.858441    11B2g    1.858441  
      23Ag     1.897401     7B1g    1.897449    15B2u    1.904275  
      15B3u    1.904275    24Ag     1.963870    21B1u    1.973043  
      12B3g    2.014439    12B2g    2.014439    25Ag     2.141661  
      22B1u    2.151612    26Ag     2.517474    23B1u    4.618628  
      16B2u    4.635977    16B3u    4.635977     6Au     4.668819  
      24B1u    4.669288    17B2u    4.674482    17B3u    4.674482  
      13B3g    4.674498    13B2g    4.674498     8B1g    4.675533  
      27Ag     4.675985    18B3u    4.708960    18B2u    4.708960  
       7Au     4.709408    25B1u    4.710055    14B3g    4.714950  
      14B2g    4.714950    19B2u    4.778577    19B3u    4.778577  
      28Ag     4.836584    26B1u    4.988158    20B2u    5.426508  
      20B3u    5.426508     8Au     5.427084     9B1g    5.427420  
      27B1u    5.427458    29Ag     5.427793    15B3g    5.427838  
      15B2g    5.427838    21B3u    5.428709    21B2u    5.428709  
      16B2g    5.428739    16B3g    5.428739    28B1u    5.430036  
      30Ag     5.430043    29B1u    5.430779    10B1g    5.430837  
       9Au     5.430837    31Ag     5.431009    11B1g    5.461941  
      17B3g    5.462069    17B2g    5.462069    32Ag     5.462461  
      18B2g    5.466071    18B3g    5.466071    33Ag     5.470607  
      12B1g    5.471707    34Ag     5.477466    35Ag    33.240040  
      30B1u   33.378160    36Ag    33.787962    37Ag   110.661231  
      31B1u  110.702550    38Ag   110.849815  

    Final Occupation by Irrep:
             Ag   B1g   B2g   B3g    Au   B1u   B2u   B3u 
    DOCC [     8,    2,    3,    3,    1,    5,    3,    3 ]

  @DF-RKS Final Energy:  -440.82069213161930

   => Energetics <=

    Nuclear Repulsion Energy =            181.6373108891218067
    One-Electron Energy =               -1135.9001465705043756
    Two-Electron Energy =                 555.7893043662925265
    DFT Exchange-Correlation Energy =     -42.3466410965293250
    Empirical Dispersion Energy =          -0.0005197200000000
    VV10 Nonlocal Energy =                  0.0000000000000000
    Total Energy =                       -440.8206921316192961

Computation Completed


Properties will be evaluated at   0.000000,   0.000000,   0.000000 [a0]

Properties computed using the SCF density matrix

  Nuclear Dipole Moment: [e a0]
     X:     0.0000      Y:     0.0000      Z:    -0.0000

  Electronic Dipole Moment: [e a0]
     X:     0.0000      Y:     0.0000      Z:     0.0000

  Dipole Moment: [e a0]
     X:     0.0000      Y:     0.0000      Z:    -0.0000     Total:     0.0000

  Dipole Moment: [D]
     X:     0.0000      Y:     0.0000      Z:    -0.0000     Total:     0.0000


*** tstop() called on compute450.bc4.acrc.priv at Tue Nov  2 16:43:10 2021
Module time:
	user time   =      90.18 seconds =       1.50 minutes
	system time =       3.57 seconds =       0.06 minutes
	total time  =         13 seconds =       0.22 minutes
Total time:
	user time   =      90.18 seconds =       1.50 minutes
	system time =       3.57 seconds =       0.06 minutes
	total time  =         13 seconds =       0.22 minutes

*** tstart() called on compute450.bc4.acrc.priv
*** at Tue Nov  2 16:43:10 2021


         ------------------------------------------------------------
                                   SCF GRAD                          
                          Rob Parrish, Justin Turney,                
                       Andy Simmonett, and Alex Sokolov              
         ------------------------------------------------------------

  ==> Geometry <==

    Molecular point group: d2h
    Full point group: D_inf_h

    Geometry (in Angstrom), charge = 1, multiplicity = 1:

       Center              X                  Y                   Z               Mass       
    ------------   -----------------  -----------------  -----------------  -----------------
         AG           0.000000000000     0.000000000000     0.000000000000   106.905091600000
         AG           0.000000000000     0.000000000000     2.629319000000   106.905091600000
         AG           0.000000000000     0.000000000000    -2.629319000000   106.905091600000

  Nuclear repulsion =  181.637310889121807

  ==> Basis Set <==

  Basis Set: DEF2-TZVPPD
    Blend: DEF2-TZVPPD
    Number of shells: 48
    Number of basis functions: 168
    Number of Cartesian functions: 213
    Spherical Harmonics?: true
    Max angular momentum: 4

  Core potential: DEF2-TZVPPD
    Number of shells: 12
    Number of ECP primitives: 42
    Number of ECP core electrons: 84
    Max angular momentum: 3

  ==> DFJKGrad: Density-Fitted SCF Gradients <==

    Gradient:                    1
    J tasked:                  Yes
    K tasked:                   No
    wK tasked:                  No
    OpenMP threads:             28
    Integrals threads:          28
    Memory [MiB]:           102996
    Schwarz Cutoff:          1E-12
    Fitting Condition:       1E-10

   => Auxiliary Basis Set <=

  Basis Set: (DEF2-TZVPPD AUX)
    Blend: DEF2-UNIVERSAL-JKFIT
    Number of shells: 147
    Number of basis functions: 765
    Number of Cartesian functions: 1152
    Spherical Harmonics?: true
    Max angular momentum: 6

  ==> DFT Potential <==

   => Composite Functional: SCAN-D3BJ <= 

    SCAN Meta-GGA XC Functional
(10.1103/PhysRevLett.115.036402)
    J. Sun, A. Ruzsinszky, J. P. Perdew  Phys. Rev. Lett. 115, 036402, 2015


    Deriv               =              1
    GGA                 =           TRUE
    Meta                =           TRUE

    Exchange Hybrid     =          FALSE
    MP2 Hybrid          =          FALSE

   => Exchange Functionals <=

    1.0000   XC_MGGA_X_SCAN

   => Correlation Functionals <=

    1.0000   XC_MGGA_C_SCAN

   => LibXC Density Thresholds  <==

    XC_MGGA_C_SCAN:  1.00E-15 
    XC_MGGA_X_SCAN:  1.00E-15 

   => Molecular Quadrature <=

    Radial Scheme          =       TREUTLER
    Pruning Scheme         =           NONE
    Nuclear Scheme         =       TREUTLER

    BS radius alpha        =              1
    Pruning alpha          =              1
    Radial Points          =             75
    Spherical Points       =            302
    Total Points           =          62720
    Total Blocks           =            621
    Max Points             =            256
    Max Functions          =            148
    Weights Tolerance      =       1.00E-15


  -Total Gradient:
     Atom            X                  Y                   Z
    ------   -----------------  -----------------  -----------------
       1       -0.000000000000    -0.000000000000     0.000000000000
       2        0.000000000000     0.000000000000    -0.090905041462
       3        0.000000000000    -0.000000000000     0.090905041462


*** tstop() called on compute450.bc4.acrc.priv at Tue Nov  2 16:43:23 2021
Module time:
	user time   =      56.77 seconds =       0.95 minutes
	system time =       6.00 seconds =       0.10 minutes
	total time  =         13 seconds =       0.22 minutes
Total time:
	user time   =     148.88 seconds =       2.48 minutes
	system time =       9.67 seconds =       0.16 minutes
	total time  =         26 seconds =       0.43 minutes


  ==> Adding ECP gradient terms (computed numerically) <==

  -ECP Gradient:
     Atom            X                  Y                   Z
    ------   -----------------  -----------------  -----------------
       1        0.000000000000     0.000000000000     0.000000000000
       2        0.000000000000     0.000000000000     0.084632024600
       3       -0.000000000000     0.000000000000    -0.084632024600


  -Total Gradient:
     Atom            X                  Y                   Z
    ------   -----------------  -----------------  -----------------
       1       -0.000000000000     0.000000000000     0.000000000000
       2        0.000000000000     0.000000000000    -0.006273016862
       3       -0.000000000000    -0.000000000000     0.006273016862


			-----------------------------------------
			 OPTKING 2.0: for geometry optimizations 
			  - R.A. King,  Bethel University        
			-----------------------------------------
	At level 1: Red. Int., RFO, no backsteps, dynamic trust

	Internal coordinates to be generated automatically.
	Detected frag 1 with atoms:  1 2 3
	---Fragment 1 Bond Connectivity---
	 1 : 2 3
	 2 : 1
	 3 : 1

	---Fragment 1 Geometry and Gradient---
	 AG          0.0000000000        0.0000000000        0.0000000000
	 AG          0.0000000000        0.0000000000        4.9686928065
	 AG          0.0000000000        0.0000000000       -4.9686928065
	            -0.0000000000        0.0000000000        0.0000000000
	             0.0000000000        0.0000000000       -0.0062730169
	            -0.0000000000       -0.0000000000        0.0062730169

	Previous optimization step data not found.  Starting new optimization.

	---Fragment 1 Intrafragment Coordinates---
	 - Coordinate -           - BOHR/RAD -       - ANG/DEG -
	 R(1,2)           =         4.968693	       2.629319
	 R(1,3)           =         4.968693	       2.629319
	 L(2,1,3)         =         3.141593	     180.000000
	 l(2,1,3)         =         3.141593	     180.000000

	Current energy   :      -440.8206921316

	Generating empirical Hessian (Schlegel '84) for each fragment.
	Taking RFO optimization step.
	Going to follow RFO solution 1.
	Using RFO vector 1.
	Norm of target step-size    0.12298
	Projected energy change by RFO approximation:         0.0063744625

	Back-transformation to cartesian coordinates...
	Successfully converged to displaced geometry.

	--- Internal Coordinate Step in ANG or DEG, aJ/ANG or AJ/DEG ---
	 ---------------------------------------------------------------------------
	   Coordinate                Previous        Force       Change         New 
	   ----------                --------       ------       ------       ------
	    1 R(1,2)          =      2.629319     0.051682     0.046017     2.675336
	    2 R(1,3)          =      2.629319     0.051682     0.046017     2.675336
	    3 L(2,1,3)        =    180.000000    -0.000000     0.000000   180.000000
	    4 l(2,1,3)        =    180.000000    -0.000000     0.000000   180.000000
	 ---------------------------------------------------------------------------
	Successfully symmetrized geometry.

  ==> Convergence Check <==

  Measures of convergence in internal coordinates in au.
  Criteria marked as inactive (o), active & met (*), and active & unmet ( ).
  --------------------------------------------------------------------------------------------- ~
   Step     Total Energy     Delta E     MAX Force     RMS Force      MAX Disp      RMS Disp    ~
  --------------------------------------------------------------------------------------------- ~
    Convergence Criteria    1.00e-06 *    3.00e-04 *             o    1.20e-03 *             o  ~
  --------------------------------------------------------------------------------------------- ~
      1    -440.82069213   -4.41e+02      6.27e-03      4.44e-03 o    8.70e-02      6.15e-02 o  ~
  ---------------------------------------------------------------------------------------------

	Writing optimization data to binary file.
	Structure for next step:
	Cartesian Geometry (in Angstrom)
	   AG    -0.0000000000   0.0000000000   0.0000000000
	   AG     0.0000000000  -0.0000000000   2.6753356807
	   AG     0.0000000000  -0.0000000000  -2.6753356807
			--------------------------
			 OPTKING Finished Execution 
			--------------------------

    Structure for next step:
    Molecular point group: d2h
    Full point group: D_inf_h

    Geometry (in Angstrom), charge = 1, multiplicity = 1:

    AG           0.000000000000     0.000000000000     0.000000000000
    AG          -0.000000000000    -0.000000000000     2.675335691236
    AG          -0.000000000000    -0.000000000000    -2.675335691236


Scratch directory: /tmp/
gradient() will perform analytic gradient computation.

*** tstart() called on compute450.bc4.acrc.priv
*** at Tue Nov  2 16:47:23 2021

   => Loading Basis Set <=

    Name: DEF2-TZVPPD
    Role: ORBITAL
    Keyword: BASIS
    atoms 1-3 entry AG         line  2174 (ECP: line  3646) file /mnt/storage/home/zw18965/.conda/envs/p4env/share/psi4/basis/def2-tzvppd.gbs 

    !!!  WARNING: ECP capability is in beta. Please check occupations closely.  !!!

   => SCAN-D3(BJ): Empirical Dispersion <=

    Grimme's -D3 (BJ-damping) Dispersion Correction
    Grimme S.; Ehrlich S.; Goerigk L. (2011), J. Comput. Chem., 32: 1456
    Parametrisation from:    J.G. Brandenburg, J. E. Bates, J. Sun, J.P. Perdew, Phys. Rev. B 94, 115144, 2016

        s6 =       1.000000
        s8 =       0.000000
        a1 =       0.538000
        a2 =       5.420000


         ---------------------------------------------------------
                                   SCF
               by Justin Turney, Rob Parrish, Andy Simmonett
                          and Daniel G. A. Smith
                              RKS Reference
                       28 Threads, 137329 MiB Core
         ---------------------------------------------------------

  ==> Geometry <==

    Molecular point group: d2h
    Full point group: D_inf_h

    Geometry (in Angstrom), charge = 1, multiplicity = 1:

       Center              X                  Y                   Z               Mass       
    ------------   -----------------  -----------------  -----------------  -----------------
         AG           0.000000000000     0.000000000000     0.000000000000   106.905091600000
         AG           0.000000000000     0.000000000000     2.675335691236   106.905091600000
         AG           0.000000000000     0.000000000000    -2.675335691236   106.905091600000

  Running in d2h symmetry.

  Rotational constants: A = ************  B =      0.01102  C =      0.01102 [cm^-1]
  Rotational constants: A = ************  B =    330.24196  C =    330.24196 [MHz]
  Nuclear repulsion =  178.513086860133228

  Charge       = 1
  Multiplicity = 1
  Electrons    = 56
  Nalpha       = 28
  Nbeta        = 28

  ==> Algorithm <==

  SCF Algorithm Type is DF.
  DIIS enabled.
  MOM disabled.
  Fractional occupation disabled.
  Guess Type is READ.
  Energy threshold   = 1.00e-08
  Density threshold  = 1.00e-08
  Integral threshold = 1.00e-12

  ==> Primary Basis <==

  Basis Set: DEF2-TZVPPD
    Blend: DEF2-TZVPPD
    Number of shells: 48
    Number of basis functions: 168
    Number of Cartesian functions: 213
    Spherical Harmonics?: true
    Max angular momentum: 4

  Core potential: DEF2-TZVPPD
    Number of shells: 12
    Number of ECP primitives: 42
    Number of ECP core electrons: 84
    Max angular momentum: 3

  ==> DFT Potential <==

   => Composite Functional: SCAN-D3BJ <= 

    SCAN Meta-GGA XC Functional
(10.1103/PhysRevLett.115.036402)
    J. Sun, A. Ruzsinszky, J. P. Perdew  Phys. Rev. Lett. 115, 036402, 2015


    Deriv               =              1
    GGA                 =           TRUE
    Meta                =           TRUE

    Exchange Hybrid     =          FALSE
    MP2 Hybrid          =          FALSE

   => Exchange Functionals <=

    1.0000   XC_MGGA_X_SCAN

   => Correlation Functionals <=

    1.0000   XC_MGGA_C_SCAN

   => LibXC Density Thresholds  <==

    XC_MGGA_C_SCAN:  1.00E-15 
    XC_MGGA_X_SCAN:  1.00E-15 

   => Molecular Quadrature <=

    Radial Scheme          =       TREUTLER
    Pruning Scheme         =           NONE
    Nuclear Scheme         =       TREUTLER

    BS radius alpha        =              1
    Pruning alpha          =              1
    Radial Points          =             75
    Spherical Points       =            302
    Total Points           =          62748
    Total Blocks           =            624
    Max Points             =            256
    Max Functions          =            148
    Weights Tolerance      =       1.00E-15

   => Loading Basis Set <=

    Name: (DEF2-TZVPPD AUX)
    Role: JKFIT
    Keyword: DF_BASIS_SCF
    atoms 1-3 entry AG         line  4364 file /mnt/storage/home/zw18965/.conda/envs/p4env/share/psi4/basis/def2-universal-jkfit.gbs 

   => Loading Basis Set <=

    Name: DEF2-TZVPPD
    Role: ORBITAL
    Keyword: BASIS
    atoms 1-3 entry AG         line  2174 (ECP: line  3646) file /mnt/storage/home/zw18965/.conda/envs/p4env/share/psi4/basis/def2-tzvppd.gbs 

    !!!  WARNING: ECP capability is in beta. Please check occupations closely.  !!!

  Reading orbitals from file /tmp/Ag03C1_LIN.default.13312.180.npy, no projection.

  ==> Integral Setup <==

  DFHelper Memory: AOs need 0.158 GiB; user supplied 100.124 GiB. Using in-core AOs.

  ==> MemDFJK: Density-Fitted J/K Matrices <==

    J tasked:                   Yes
    K tasked:                    No
    wK tasked:                   No
    OpenMP threads:              28
    Memory [MiB]:            102527
    Algorithm:                 Core
    Schwarz Cutoff:           1E-12
    Mask sparsity (%):      13.3220
    Fitting Condition:        1E-10

   => Auxiliary Basis Set <=

  Basis Set: (DEF2-TZVPPD AUX)
    Blend: DEF2-UNIVERSAL-JKFIT
    Number of shells: 147
    Number of basis functions: 765
    Number of Cartesian functions: 1152
    Spherical Harmonics?: true
    Max angular momentum: 6

  Cached 100.0% of DFT collocation blocks in 0.458 [GiB].

  Minimum eigenvalue in the overlap matrix is 1.6670454150E-03.
  Reciprocal condition number of the overlap matrix is 4.2168092912E-04.
    Using symmetric orthogonalization.

  ==> Pre-Iterations <==

  SCF Guess: Orbitals guess was supplied from a previous computation.

   -------------------------------------------------------
    Irrep   Nso     Nmo     Nalpha   Nbeta   Ndocc  Nsocc
   -------------------------------------------------------
     Ag        38      38       8       8       8       0
     B1g       12      12       2       2       2       0
     B2g       18      18       3       3       3       0
     B3g       18      18       3       3       3       0
     Au         9       9       1       1       1       0
     B1u       31      31       5       5       5       0
     B2u       21      21       3       3       3       0
     B3u       21      21       3       3       3       0
   -------------------------------------------------------
    Total     168     168      28      28      28       0
   -------------------------------------------------------

  ==> Iterations <==

                           Total Energy        Delta E     RMS |[F,P]|

   @DF-RKS iter   0:  -440.81134337348772   -4.40811e+02   1.16489e-03 
   @DF-RKS iter   1:  -440.81993042365343   -8.58705e-03   7.16829e-05 DIIS
   @DF-RKS iter   2:  -440.81991814440511    1.22792e-05   1.31564e-04 DIIS
   @DF-RKS iter   3:  -440.81994243036110   -2.42860e-05   2.01813e-05 DIIS
   @DF-RKS iter   4:  -440.81994276098516   -3.30624e-07   1.02187e-05 DIIS
   @DF-RKS iter   5:  -440.81994291995500   -1.58970e-07   2.62047e-06 DIIS
   @DF-RKS iter   6:  -440.81994293156038   -1.16054e-08   5.84671e-07 DIIS
   @DF-RKS iter   7:  -440.81994293188950   -3.29123e-10   9.43674e-08 DIIS
   @DF-RKS iter   8:  -440.81994293190854   -1.90425e-11   2.58885e-08 DIIS
   @DF-RKS iter   9:  -440.81994293191030   -1.76215e-12   9.60817e-10 DIIS
  Energy and wave function converged.


  ==> Post-Iterations <==

   Electrons on quadrature grid:
      Ntotal   =   55.9999727222 ; deviation = -2.728e-05 

    Orbital Energies [Eh]
    ---------------------

    Doubly Occupied:                                                      

       1Ag    -3.886778     1B1u   -3.886777     2Ag    -3.855250  
       2B1u   -2.477780     3Ag    -2.477572     1B3u   -2.474886  
       1B2u   -2.474886     1B2g   -2.474885     1B3g   -2.474885  
       3B1u   -2.447682     2B3u   -2.439810     2B2u   -2.439810  
       4Ag    -0.513341     2B2g   -0.489646     2B3g   -0.489646  
       4B1u   -0.484015     3B3u   -0.480364     3B2u   -0.480364  
       1B1g   -0.476458     5Ag    -0.476449     1Au    -0.476086  
       5B1u   -0.476077     2B1g   -0.438877     6Ag    -0.438858  
       3B2g   -0.438401     3B3g   -0.438401     7Ag    -0.435976  
       8Ag    -0.377334  

    Virtual:                                                              

       6B1u   -0.343227     9Ag    -0.252596     4B3u   -0.192760  
       4B2u   -0.192760     7B1u   -0.171408     4B2g   -0.149144  
       4B3g   -0.149144     5B3u   -0.081088     5B2u   -0.081088  
      10Ag    -0.054573    11Ag    -0.036538     8B1u   -0.019629  
       9B1u    0.004983     6B3u    0.035149     6B2u    0.035149  
      12Ag     0.044648     5B2g    0.065095     5B3g    0.065095  
       7B3u    0.106384     7B2u    0.106384    13Ag     0.122081  
      10B1u    0.126241    14Ag     0.193092     3B1g    0.193095  
       6B3g    0.212591     6B2g    0.212591     2Au     0.235344  
      11B1u    0.235345    12B1u    0.244814     4B1g    0.318810  
      15Ag     0.318818     8B2u    0.323584     8B3u    0.323584  
      16Ag     0.428928    13B1u    0.495058     7B2g    0.505587  
       7B3g    0.505587    17Ag     0.590037    14B1u    1.285116  
       9B3u    1.340887     9B2u    1.340887     3Au     1.374706  
      15B1u    1.374844     5B1g    1.379542    18Ag     1.379676  
      10B3u    1.379747    10B2u    1.379747     8B2g    1.379758  
       8B3g    1.379758     9B2g    1.393528     9B3g    1.393528  
      11B3u    1.400628    11B2u    1.400628    19Ag     1.406328  
       4Au     1.419921    16B1u    1.420105    12B2u    1.423747  
      12B3u    1.423747    13B2u    1.434383    13B3u    1.434383  
      17B1u    1.457474    10B2g    1.464286    10B3g    1.464286  
      20Ag     1.475672    18B1u    1.537268    14B2u    1.549061  
      14B3u    1.549061    21Ag     1.684024    19B1u    1.731301  
      22Ag     1.828508     6B1g    1.828540    20B1u    1.835704  
       5Au     1.835730    11B3g    1.864592    11B2g    1.864592  
      23Ag     1.897552     7B1g    1.897596    15B2u    1.903717  
      15B3u    1.903717    21B1u    1.965934    24Ag     1.971066  
      12B3g    2.010743    12B2g    2.010743    25Ag     2.114600  
      22B1u    2.139914    26Ag     2.499063    23B1u    4.625476  
      16B3u    4.646402    16B2u    4.646402     6Au     4.671676  
      24B1u    4.672124    17B2u    4.675921    17B3u    4.675921  
      13B3g    4.675930    13B2g    4.675930     8B1g    4.676680  
      27Ag     4.677118     7Au     4.710008    25B1u    4.710630  
      18B2u    4.710874    18B3u    4.710874    14B2g    4.712730  
      14B3g    4.712730    19B3u    4.768017    19B2u    4.768017  
      28Ag     4.827502    26B1u    4.961011    20B2u    5.428100  
      20B3u    5.428100     8Au     5.428778     9B1g    5.429073  
      27B1u    5.429162    29Ag     5.429455    15B3g    5.429566  
      15B2g    5.429566    21B3u    5.430247    21B2u    5.430247  
      16B2g    5.430296    16B3g    5.430296    28B1u    5.430997  
      30Ag     5.431442    29B1u    5.431504    10B1g    5.432178  
       9Au     5.432178    31Ag     5.432390    17B2g    5.464019  
      17B3g    5.464019    11B1g    5.464236    32Ag     5.464810  
      18B2g    5.468065    18B3g    5.468065    33Ag     5.472321  
      12B1g    5.473338    34Ag     5.476068    35Ag    33.231862  
      30B1u   33.360414    36Ag    33.759403    37Ag   110.660125  
      31B1u  110.697982    38Ag   110.841773  

    Final Occupation by Irrep:
             Ag   B1g   B2g   B3g    Au   B1u   B2u   B3u 
    DOCC [     8,    2,    3,    3,    1,    5,    3,    3 ]

  @DF-RKS Final Energy:  -440.81994293191030

   => Energetics <=

    Nuclear Repulsion Energy =            178.5130868601332281
    One-Electron Energy =               -1129.7611021659236030
    Two-Electron Energy =                 552.7684079216097643
    DFT Exchange-Correlation Energy =     -42.3398207177296655
    Empirical Dispersion Energy =          -0.0005148300000000
    VV10 Nonlocal Energy =                  0.0000000000000000
    Total Energy =                       -440.8199429319103047

Computation Completed


Properties will be evaluated at   0.000000,   0.000000,   0.000000 [a0]

Properties computed using the SCF density matrix

  Nuclear Dipole Moment: [e a0]
     X:     0.0000      Y:     0.0000      Z:     0.0000

  Electronic Dipole Moment: [e a0]
     X:     0.0000      Y:     0.0000      Z:     0.0000

  Dipole Moment: [e a0]
     X:     0.0000      Y:     0.0000      Z:     0.0000     Total:     0.0000

  Dipole Moment: [D]
     X:     0.0000      Y:     0.0000      Z:     0.0000     Total:     0.0000


*** tstop() called on compute450.bc4.acrc.priv at Tue Nov  2 16:47:33 2021
Module time:
	user time   =      80.21 seconds =       1.34 minutes
	system time =       2.06 seconds =       0.03 minutes
	total time  =         10 seconds =       0.17 minutes
Total time:
	user time   =    1471.90 seconds =      24.53 minutes
	system time =      20.35 seconds =       0.34 minutes
	total time  =        276 seconds =       4.60 minutes

*** tstart() called on compute450.bc4.acrc.priv
*** at Tue Nov  2 16:47:33 2021


         ------------------------------------------------------------
                                   SCF GRAD                          
                          Rob Parrish, Justin Turney,                
                       Andy Simmonett, and Alex Sokolov              
         ------------------------------------------------------------

  ==> Geometry <==

    Molecular point group: d2h
    Full point group: D_inf_h

    Geometry (in Angstrom), charge = 1, multiplicity = 1:

       Center              X                  Y                   Z               Mass       
    ------------   -----------------  -----------------  -----------------  -----------------
         AG           0.000000000000     0.000000000000     0.000000000000   106.905091600000
         AG           0.000000000000     0.000000000000     2.675335691236   106.905091600000
         AG           0.000000000000     0.000000000000    -2.675335691236   106.905091600000

  Nuclear repulsion =  178.513086860133228

  ==> Basis Set <==

  Basis Set: DEF2-TZVPPD
    Blend: DEF2-TZVPPD
    Number of shells: 48
    Number of basis functions: 168
    Number of Cartesian functions: 213
    Spherical Harmonics?: true
    Max angular momentum: 4

  Core potential: DEF2-TZVPPD
    Number of shells: 12
    Number of ECP primitives: 42
    Number of ECP core electrons: 84
    Max angular momentum: 3

  ==> DFJKGrad: Density-Fitted SCF Gradients <==

    Gradient:                    1
    J tasked:                  Yes
    K tasked:                   No
    wK tasked:                  No
    OpenMP threads:             28
    Integrals threads:          28
    Memory [MiB]:           102996
    Schwarz Cutoff:          1E-12
    Fitting Condition:       1E-10

   => Auxiliary Basis Set <=

  Basis Set: (DEF2-TZVPPD AUX)
    Blend: DEF2-UNIVERSAL-JKFIT
    Number of shells: 147
    Number of basis functions: 765
    Number of Cartesian functions: 1152
    Spherical Harmonics?: true
    Max angular momentum: 6

  ==> DFT Potential <==

   => Composite Functional: SCAN-D3BJ <= 

    SCAN Meta-GGA XC Functional
(10.1103/PhysRevLett.115.036402)
    J. Sun, A. Ruzsinszky, J. P. Perdew  Phys. Rev. Lett. 115, 036402, 2015


    Deriv               =              1
    GGA                 =           TRUE
    Meta                =           TRUE

    Exchange Hybrid     =          FALSE
    MP2 Hybrid          =          FALSE

   => Exchange Functionals <=

    1.0000   XC_MGGA_X_SCAN

   => Correlation Functionals <=

    1.0000   XC_MGGA_C_SCAN

   => LibXC Density Thresholds  <==

    XC_MGGA_C_SCAN:  1.00E-15 
    XC_MGGA_X_SCAN:  1.00E-15 

   => Molecular Quadrature <=

    Radial Scheme          =       TREUTLER
    Pruning Scheme         =           NONE
    Nuclear Scheme         =       TREUTLER

    BS radius alpha        =              1
    Pruning alpha          =              1
    Radial Points          =             75
    Spherical Points       =            302
    Total Points           =          62748
    Total Blocks           =            624
    Max Points             =            256
    Max Functions          =            148
    Weights Tolerance      =       1.00E-15


  -Total Gradient:
     Atom            X                  Y                   Z
    ------   -----------------  -----------------  -----------------
       1        0.000000000000     0.000000000000     0.000000000000
       2        0.000000000000     0.000000000000    -0.080552526786
       3        0.000000000000    -0.000000000000     0.080552526786


*** tstop() called on compute450.bc4.acrc.priv at Tue Nov  2 16:47:44 2021
Module time:
	user time   =      50.29 seconds =       0.84 minutes
	system time =       1.62 seconds =       0.03 minutes
	total time  =         11 seconds =       0.18 minutes
Total time:
	user time   =    1525.30 seconds =      25.42 minutes
	system time =      22.11 seconds =       0.37 minutes
	total time  =        287 seconds =       4.78 minutes


  ==> Adding ECP gradient terms (computed numerically) <==

  -ECP Gradient:
     Atom            X                  Y                   Z
    ------   -----------------  -----------------  -----------------
       1        0.000000000000     0.000000000000     0.000000000000
       2        0.000000000000     0.000000000000     0.077872354674
       3        0.000000000000    -0.000000000000    -0.077872354674


  -Total Gradient:
     Atom            X                  Y                   Z
    ------   -----------------  -----------------  -----------------
       1        0.000000000000     0.000000000000     0.000000000000
       2        0.000000000000     0.000000000000    -0.002680172111
       3        0.000000000000    -0.000000000000     0.002680172111


			-----------------------------------------
			 OPTKING 2.0: for geometry optimizations 
			  - R.A. King,  Bethel University        
			-----------------------------------------
	At level 1: Red. Int., RFO, no backsteps, dynamic trust

	Previous internal coordinate definitions found.
	---Fragment 1 Geometry and Gradient---
	 AG          0.0000000000        0.0000000000        0.0000000000
	 AG          0.0000000000        0.0000000000        5.0556517501
	 AG          0.0000000000        0.0000000000       -5.0556517501
	             0.0000000000        0.0000000000        0.0000000000
	             0.0000000000        0.0000000000       -0.0026801721
	             0.0000000000       -0.0000000000        0.0026801721

	---Fragment 1 Intrafragment Coordinates---
	 - Coordinate -           - BOHR/RAD -       - ANG/DEG -
	 R(1,2)           =         5.055652	       2.675336
	 R(1,3)           =         5.055652	       2.675336
	 L(2,1,3)         =         3.141593	     180.000000
	 l(2,1,3)         =         3.141593	     180.000000

	Current energy   :      -440.8199429319

	Energy change for the previous step:
		Projected    :         0.0063744625
		Actual       :         0.0007491997

	Performing BFGS update.
	Previous computed or guess Hessian on step 1.
	Steps to be used in Hessian update: 1
	Taking RFO optimization step.
	Going to follow RFO solution 1.
	Using RFO vector 1.
	Norm of target step-size    0.09098
	Projected energy change by RFO approximation:         0.0025604231

	Back-transformation to cartesian coordinates...
	Successfully converged to displaced geometry.

	--- Internal Coordinate Step in ANG or DEG, aJ/ANG or AJ/DEG ---
	 ---------------------------------------------------------------------------
	   Coordinate                Previous        Force       Change         New 
	   ----------                --------       ------       ------       ------
	    1 R(1,2)          =      2.675336     0.022081     0.034043     2.709379
	    2 R(1,3)          =      2.675336     0.022081     0.034043     2.709379
	    3 L(2,1,3)        =    180.000000    -0.000000     0.000000   180.000000
	    4 l(2,1,3)        =    180.000000    -0.000000     0.000000   180.000000
	 ---------------------------------------------------------------------------
	Successfully symmetrized geometry.

  ==> Convergence Check <==

  Measures of convergence in internal coordinates in au.
  Criteria marked as inactive (o), active & met (*), and active & unmet ( ).
  ---------------------------------------------------------------------------------------------
   Step     Total Energy     Delta E     MAX Force     RMS Force      MAX Disp      RMS Disp   
  ---------------------------------------------------------------------------------------------
    Convergence Criteria    1.00e-06 *    3.00e-04 *             o    1.20e-03 *             o
  ---------------------------------------------------------------------------------------------
      2    -440.81994293    7.49e-04      2.68e-03      1.90e-03 o    6.43e-02      4.55e-02 o  ~
  ---------------------------------------------------------------------------------------------

	Writing optimization data to binary file.
	Structure for next step:
	Cartesian Geometry (in Angstrom)
	   AG    -0.0000000000   0.0000000000   0.0000000000
	   AG     0.0000000000  -0.0000000000   2.7093788420
	   AG     0.0000000000  -0.0000000000  -2.7093788420
			--------------------------
			 OPTKING Finished Execution 
			--------------------------

    Structure for next step:
    Molecular point group: d2h
    Full point group: D_inf_h

    Geometry (in Angstrom), charge = 1, multiplicity = 1:

    AG           0.000000000000     0.000000000000     0.000000000000
    AG          -0.000000000000    -0.000000000000     2.709378852698
    AG          -0.000000000000    -0.000000000000    -2.709378852698


Scratch directory: /tmp/
gradient() will perform analytic gradient computation.

*** tstart() called on compute450.bc4.acrc.priv
*** at Tue Nov  2 16:51:43 2021

   => Loading Basis Set <=

    Name: DEF2-TZVPPD
    Role: ORBITAL
    Keyword: BASIS
    atoms 1-3 entry AG         line  2174 (ECP: line  3646) file /mnt/storage/home/zw18965/.conda/envs/p4env/share/psi4/basis/def2-tzvppd.gbs 

    !!!  WARNING: ECP capability is in beta. Please check occupations closely.  !!!

   => SCAN-D3(BJ): Empirical Dispersion <=

    Grimme's -D3 (BJ-damping) Dispersion Correction
    Grimme S.; Ehrlich S.; Goerigk L. (2011), J. Comput. Chem., 32: 1456
    Parametrisation from:    J.G. Brandenburg, J. E. Bates, J. Sun, J.P. Perdew, Phys. Rev. B 94, 115144, 2016

        s6 =       1.000000
        s8 =       0.000000
        a1 =       0.538000
        a2 =       5.420000


         ---------------------------------------------------------
                                   SCF
               by Justin Turney, Rob Parrish, Andy Simmonett
                          and Daniel G. A. Smith
                              RKS Reference
                       28 Threads, 137329 MiB Core
         ---------------------------------------------------------

  ==> Geometry <==

    Molecular point group: d2h
    Full point group: D_inf_h

    Geometry (in Angstrom), charge = 1, multiplicity = 1:

       Center              X                  Y                   Z               Mass       
    ------------   -----------------  -----------------  -----------------  -----------------
         AG           0.000000000000     0.000000000000     0.000000000000   106.905091600000
         AG           0.000000000000     0.000000000000     2.709378852698   106.905091600000
         AG           0.000000000000     0.000000000000    -2.709378852698   106.905091600000

  Running in d2h symmetry.

  Rotational constants: A = ************  B =      0.01074  C =      0.01074 [cm^-1]
  Rotational constants: A = ************  B =    321.99516  C =    321.99516 [MHz]
  Nuclear repulsion =  176.270082035238318

  Charge       = 1
  Multiplicity = 1
  Electrons    = 56
  Nalpha       = 28
  Nbeta        = 28

  ==> Algorithm <==

  SCF Algorithm Type is DF.
  DIIS enabled.
  MOM disabled.
  Fractional occupation disabled.
  Guess Type is READ.
  Energy threshold   = 1.00e-08
  Density threshold  = 1.00e-08
  Integral threshold = 1.00e-12

  ==> Primary Basis <==

  Basis Set: DEF2-TZVPPD
    Blend: DEF2-TZVPPD
    Number of shells: 48
    Number of basis functions: 168
    Number of Cartesian functions: 213
    Spherical Harmonics?: true
    Max angular momentum: 4

  Core potential: DEF2-TZVPPD
    Number of shells: 12
    Number of ECP primitives: 42
    Number of ECP core electrons: 84
    Max angular momentum: 3

  ==> DFT Potential <==

   => Composite Functional: SCAN-D3BJ <= 

    SCAN Meta-GGA XC Functional
(10.1103/PhysRevLett.115.036402)
    J. Sun, A. Ruzsinszky, J. P. Perdew  Phys. Rev. Lett. 115, 036402, 2015


    Deriv               =              1
    GGA                 =           TRUE
    Meta                =           TRUE

    Exchange Hybrid     =          FALSE
    MP2 Hybrid          =          FALSE

   => Exchange Functionals <=

    1.0000   XC_MGGA_X_SCAN

   => Correlation Functionals <=

    1.0000   XC_MGGA_C_SCAN

   => LibXC Density Thresholds  <==

    XC_MGGA_C_SCAN:  1.00E-15 
    XC_MGGA_X_SCAN:  1.00E-15 

   => Molecular Quadrature <=

    Radial Scheme          =       TREUTLER
    Pruning Scheme         =           NONE
    Nuclear Scheme         =       TREUTLER

    BS radius alpha        =              1
    Pruning alpha          =              1
    Radial Points          =             75
    Spherical Points       =            302
    Total Points           =          62768
    Total Blocks           =            624
    Max Points             =            253
    Max Functions          =            143
    Weights Tolerance      =       1.00E-15

   => Loading Basis Set <=

    Name: (DEF2-TZVPPD AUX)
    Role: JKFIT
    Keyword: DF_BASIS_SCF
    atoms 1-3 entry AG         line  4364 file /mnt/storage/home/zw18965/.conda/envs/p4env/share/psi4/basis/def2-universal-jkfit.gbs 

   => Loading Basis Set <=

    Name: DEF2-TZVPPD
    Role: ORBITAL
    Keyword: BASIS
    atoms 1-3 entry AG         line  2174 (ECP: line  3646) file /mnt/storage/home/zw18965/.conda/envs/p4env/share/psi4/basis/def2-tzvppd.gbs 

    !!!  WARNING: ECP capability is in beta. Please check occupations closely.  !!!

  Reading orbitals from file /tmp/Ag03C1_LIN.default.13312.180.npy, no projection.

  ==> Integral Setup <==

  DFHelper Memory: AOs need 0.158 GiB; user supplied 100.127 GiB. Using in-core AOs.

  ==> MemDFJK: Density-Fitted J/K Matrices <==

    J tasked:                   Yes
    K tasked:                    No
    wK tasked:                   No
    OpenMP threads:              28
    Memory [MiB]:            102530
    Algorithm:                 Core
    Schwarz Cutoff:           1E-12
    Mask sparsity (%):      13.4779
    Fitting Condition:        1E-10

   => Auxiliary Basis Set <=

  Basis Set: (DEF2-TZVPPD AUX)
    Blend: DEF2-UNIVERSAL-JKFIT
    Number of shells: 147
    Number of basis functions: 765
    Number of Cartesian functions: 1152
    Spherical Harmonics?: true
    Max angular momentum: 6

  Cached 100.0% of DFT collocation blocks in 0.456 [GiB].

  Minimum eigenvalue in the overlap matrix is 1.8044976188E-03.
  Reciprocal condition number of the overlap matrix is 4.5806186258E-04.
    Using symmetric orthogonalization.

  ==> Pre-Iterations <==

  SCF Guess: Orbitals guess was supplied from a previous computation.

   -------------------------------------------------------
    Irrep   Nso     Nmo     Nalpha   Nbeta   Ndocc  Nsocc
   -------------------------------------------------------
     Ag        38      38       8       8       8       0
     B1g       12      12       2       2       2       0
     B2g       18      18       3       3       3       0
     B3g       18      18       3       3       3       0
     Au         9       9       1       1       1       0
     B1u       31      31       5       5       5       0
     B2u       21      21       3       3       3       0
     B3u       21      21       3       3       3       0
   -------------------------------------------------------
    Total     168     168      28      28      28       0
   -------------------------------------------------------

  ==> Iterations <==

                           Total Energy        Delta E     RMS |[F,P]|

   @DF-RKS iter   0:  -440.81241492834408   -4.40812e+02   8.13262e-04 
   @DF-RKS iter   1:  -440.81902752078992   -6.61259e-03   6.24687e-05 DIIS
   @DF-RKS iter   2:  -440.81901633556521    1.11852e-05   1.17564e-04 DIIS
   @DF-RKS iter   3:  -440.81903613584086   -1.98003e-05   1.77013e-05 DIIS
   @DF-RKS iter   4:  -440.81903641878762   -2.82947e-07   7.51667e-06 DIIS
   @DF-RKS iter   5:  -440.81903651033360   -9.15460e-08   2.09866e-06 DIIS
   @DF-RKS iter   6:  -440.81903651776707   -7.43347e-09   4.28853e-07 DIIS
   @DF-RKS iter   7:  -440.81903651793721   -1.70132e-10   7.19755e-08 DIIS
   @DF-RKS iter   8:  -440.81903651794920   -1.19940e-11   2.02318e-08 DIIS
   @DF-RKS iter   9:  -440.81903651795028   -1.08002e-12   7.11126e-10 DIIS
  Energy and wave function converged.


  ==> Post-Iterations <==

   Electrons on quadrature grid:
      Ntotal   =   55.9999776957 ; deviation = -2.230e-05 

    Orbital Energies [Eh]
    ---------------------

    Doubly Occupied:                                                      

       1Ag    -3.885622     1B1u   -3.885621     2Ag    -3.853647  
       2B1u   -2.476428     3Ag    -2.476274     1B2u   -2.473811  
       1B3u   -2.473811     1B3g   -2.473811     1B2g   -2.473811  
       3B1u   -2.445836     2B2u   -2.438399     2B3u   -2.438399  
       4Ag    -0.509368     2B3g   -0.487207     2B2g   -0.487207  
       4B1u   -0.482505     3B2u   -0.479026     3B3u   -0.479026  
       1B1g   -0.475421     5Ag    -0.475402     1Au    -0.475106  
       5B1u   -0.475086     3B2g   -0.437839     3B3g   -0.437839  
       2B1g   -0.437696     6Ag    -0.437663     7Ag    -0.435865  
       8Ag    -0.375582  

    Virtual:                                                              

       6B1u   -0.342416     9Ag    -0.253567     4B3u   -0.191479  
       4B2u   -0.191479     7B1u   -0.172121     4B2g   -0.149100  
       4B3g   -0.149100     5B3u   -0.082302     5B2u   -0.082302  
      10Ag    -0.056080    11Ag    -0.037119     8B1u   -0.019362  
       9B1u    0.003967     6B3u    0.036229     6B2u    0.036229  
      12Ag     0.043460     5B2g    0.065265     5B3g    0.065265  
       7B2u    0.105923     7B3u    0.105923    13Ag     0.118962  
      10B1u    0.125579    14Ag     0.194854     3B1g    0.194856  
       6B3g    0.209452     6B2g    0.209452     2Au     0.236205  
      11B1u    0.236206    12B1u    0.237849     4B1g    0.317246  
      15Ag     0.317255     8B2u    0.320350     8B3u    0.320350  
      16Ag     0.424807    13B1u    0.490491     7B3g    0.501813  
       7B2g    0.501813    17Ag     0.591947    14B1u    1.304486  
       9B3u    1.345698     9B2u    1.345698     3Au     1.376547  
      15B1u    1.376709     5B1g    1.380297    18Ag     1.380455  
      10B3u    1.380671    10B2u    1.380671     8B2g    1.380678  
       8B3g    1.380678     9B2g    1.393311     9B3g    1.393311  
      11B3u    1.398738    11B2u    1.398738    19Ag     1.407607  
       4Au     1.420345    16B1u    1.420566    12B3u    1.424746  
      12B2u    1.424746    13B2u    1.434767    13B3u    1.434767  
      17B1u    1.448592    10B2g    1.460759    10B3g    1.460759  
      20Ag     1.474895    18B1u    1.533590    14B2u    1.545521  
      14B3u    1.545521    21Ag     1.681473    19B1u    1.722022  
      22Ag     1.829152     6B1g    1.829182    20B1u    1.836490  
       5Au     1.836512    11B3g    1.868216    11B2g    1.868216  
      23Ag     1.897665     7B1g    1.897707    15B2u    1.903251  
      15B3u    1.903251    21B1u    1.962447    24Ag     1.973832  
      12B3g    2.008291    12B2g    2.008291    25Ag     2.099170  
      22B1u    2.131954    26Ag     2.485226    23B1u    4.631378  
      16B3u    4.653092    16B2u    4.653092     6Au     4.673468  
      24B1u    4.673892    17B3u    4.676956    17B2u    4.676956  
      13B2g    4.676962    13B3g    4.676962     8B1g    4.677517  
      27Ag     4.677934     7Au     4.710652    14B2g    4.711098  
      14B3g    4.711098    25B1u    4.711251    18B2u    4.712206  
      18B3u    4.712206    19B2u    4.761327    19B3u    4.761327  
      28Ag     4.820898    26B1u    4.942337    20B2u    5.429297  
      20B3u    5.429297     8Au     5.429937     9B1g    5.430202  
      27B1u    5.430322    29Ag     5.430586    15B3g    5.430781  
      15B2g    5.430781    21B3u    5.431329    21B2u    5.431329  
      16B2g    5.431396    16B3g    5.431396    28B1u    5.431467  
      30Ag     5.432457    29B1u    5.432490    10B1g    5.433140  
       9Au     5.433140    31Ag     5.433350    17B2g    5.465465  
      17B3g    5.465465    11B1g    5.465708    32Ag     5.466270  
      18B3g    5.469405    18B2g    5.469405    33Ag     5.473507  
      12B1g    5.474460    34Ag     5.475400    35Ag    33.226194  
      30B1u   33.348241    36Ag    33.738369    37Ag   110.659417  
      31B1u  110.694898    38Ag   110.835820  

    Final Occupation by Irrep:
             Ag   B1g   B2g   B3g    Au   B1u   B2u   B3u 
    DOCC [     8,    2,    3,    3,    1,    5,    3,    3 ]

  @DF-RKS Final Energy:  -440.81903651795028

   => Energetics <=

    Nuclear Repulsion Energy =            176.2700820352383175
    One-Electron Energy =               -1125.3516712125881440
    Two-Electron Energy =                 550.5983607897325101
    DFT Exchange-Correlation Energy =     -42.3352966903330028
    Empirical Dispersion Energy =          -0.0005114400000000
    VV10 Nonlocal Energy =                  0.0000000000000000
    Total Energy =                       -440.8190365179502805

Computation Completed


Properties will be evaluated at   0.000000,   0.000000,   0.000000 [a0]

Properties computed using the SCF density matrix

  Nuclear Dipole Moment: [e a0]
     X:     0.0000      Y:     0.0000      Z:    -0.0000

  Electronic Dipole Moment: [e a0]
     X:     0.0000      Y:     0.0000      Z:     0.0000

  Dipole Moment: [e a0]
     X:     0.0000      Y:     0.0000      Z:    -0.0000     Total:     0.0000

  Dipole Moment: [D]
     X:     0.0000      Y:     0.0000      Z:    -0.0000     Total:     0.0000


*** tstop() called on compute450.bc4.acrc.priv at Tue Nov  2 16:51:53 2021
Module time:
	user time   =      81.18 seconds =       1.35 minutes
	system time =       2.22 seconds =       0.04 minutes
	total time  =         10 seconds =       0.17 minutes
Total time:
	user time   =    2858.70 seconds =      47.65 minutes
	system time =      32.65 seconds =       0.54 minutes
	total time  =        536 seconds =       8.93 minutes

*** tstart() called on compute450.bc4.acrc.priv
*** at Tue Nov  2 16:51:53 2021


         ------------------------------------------------------------
                                   SCF GRAD                          
                          Rob Parrish, Justin Turney,                
                       Andy Simmonett, and Alex Sokolov              
         ------------------------------------------------------------

  ==> Geometry <==

    Molecular point group: d2h
    Full point group: D_inf_h

    Geometry (in Angstrom), charge = 1, multiplicity = 1:

       Center              X                  Y                   Z               Mass       
    ------------   -----------------  -----------------  -----------------  -----------------
         AG           0.000000000000     0.000000000000     0.000000000000   106.905091600000
         AG           0.000000000000     0.000000000000     2.709378852698   106.905091600000
         AG           0.000000000000     0.000000000000    -2.709378852698   106.905091600000

  Nuclear repulsion =  176.270082035238318

  ==> Basis Set <==

  Basis Set: DEF2-TZVPPD
    Blend: DEF2-TZVPPD
    Number of shells: 48
    Number of basis functions: 168
    Number of Cartesian functions: 213
    Spherical Harmonics?: true
    Max angular momentum: 4

  Core potential: DEF2-TZVPPD
    Number of shells: 12
    Number of ECP primitives: 42
    Number of ECP core electrons: 84
    Max angular momentum: 3

  ==> DFJKGrad: Density-Fitted SCF Gradients <==

    Gradient:                    1
    J tasked:                  Yes
    K tasked:                   No
    wK tasked:                  No
    OpenMP threads:             28
    Integrals threads:          28
    Memory [MiB]:           102996
    Schwarz Cutoff:          1E-12
    Fitting Condition:       1E-10

   => Auxiliary Basis Set <=

  Basis Set: (DEF2-TZVPPD AUX)
    Blend: DEF2-UNIVERSAL-JKFIT
    Number of shells: 147
    Number of basis functions: 765
    Number of Cartesian functions: 1152
    Spherical Harmonics?: true
    Max angular momentum: 6

  ==> DFT Potential <==

   => Composite Functional: SCAN-D3BJ <= 

    SCAN Meta-GGA XC Functional
(10.1103/PhysRevLett.115.036402)
    J. Sun, A. Ruzsinszky, J. P. Perdew  Phys. Rev. Lett. 115, 036402, 2015


    Deriv               =              1
    GGA                 =           TRUE
    Meta                =           TRUE

    Exchange Hybrid     =          FALSE
    MP2 Hybrid          =          FALSE

   => Exchange Functionals <=

    1.0000   XC_MGGA_X_SCAN

   => Correlation Functionals <=

    1.0000   XC_MGGA_C_SCAN

   => LibXC Density Thresholds  <==

    XC_MGGA_C_SCAN:  1.00E-15 
    XC_MGGA_X_SCAN:  1.00E-15 

   => Molecular Quadrature <=

    Radial Scheme          =       TREUTLER
    Pruning Scheme         =           NONE
    Nuclear Scheme         =       TREUTLER

    BS radius alpha        =              1
    Pruning alpha          =              1
    Radial Points          =             75
    Spherical Points       =            302
    Total Points           =          62768
    Total Blocks           =            624
    Max Points             =            253
    Max Functions          =            143
    Weights Tolerance      =       1.00E-15


  -Total Gradient:
     Atom            X                  Y                   Z
    ------   -----------------  -----------------  -----------------
       1        0.000000000000     0.000000000000     0.000000000000
       2        0.000000000000     0.000000000000    -0.073821329498
       3        0.000000000000     0.000000000000     0.073821329498


*** tstop() called on compute450.bc4.acrc.priv at Tue Nov  2 16:52:06 2021
Module time:
	user time   =      50.42 seconds =       0.84 minutes
	system time =       3.13 seconds =       0.05 minutes
	total time  =         13 seconds =       0.22 minutes
Total time:
	user time   =    2912.20 seconds =      48.54 minutes
	system time =      35.91 seconds =       0.60 minutes
	total time  =        549 seconds =       9.15 minutes


  ==> Adding ECP gradient terms (computed numerically) <==

  -ECP Gradient:
     Atom            X                  Y                   Z
    ------   -----------------  -----------------  -----------------
       1        0.000000000000     0.000000000000     0.000000000000
       2        0.000000000000     0.000000000000     0.073208818563
       3        0.000000000000     0.000000000000    -0.073208818563


  -Total Gradient:
     Atom            X                  Y                   Z
    ------   -----------------  -----------------  -----------------
       1        0.000000000000     0.000000000000     0.000000000000
       2        0.000000000000     0.000000000000    -0.000612510936
       3        0.000000000000     0.000000000000     0.000612510936


			-----------------------------------------
			 OPTKING 2.0: for geometry optimizations 
			  - R.A. King,  Bethel University        
			-----------------------------------------
	At level 1: Red. Int., RFO, no backsteps, dynamic trust

	Previous internal coordinate definitions found.
	---Fragment 1 Geometry and Gradient---
	 AG          0.0000000000        0.0000000000        0.0000000000
	 AG          0.0000000000        0.0000000000        5.1199840017
	 AG          0.0000000000        0.0000000000       -5.1199840017
	             0.0000000000        0.0000000000        0.0000000000
	             0.0000000000        0.0000000000       -0.0006125109
	             0.0000000000        0.0000000000        0.0006125109

	---Fragment 1 Intrafragment Coordinates---
	 - Coordinate -           - BOHR/RAD -       - ANG/DEG -
	 R(1,2)           =         5.119984	       2.709379
	 R(1,3)           =         5.119984	       2.709379
	 L(2,1,3)         =         3.141593	     180.000000
	 l(2,1,3)         =         3.141593	     180.000000

	Current energy   :      -440.8190365180

	Energy change for the previous step:
		Projected    :         0.0025604231
		Actual       :         0.0009064140

	Performing BFGS update.
	Previous computed or guess Hessian on step 1.
	Steps to be used in Hessian update: 2 1
	Taking RFO optimization step.
	Going to follow RFO solution 1.
	Using RFO vector 1.
	Norm of target step-size    0.02314
	Projected energy change by RFO approximation:         0.0001691714

	Back-transformation to cartesian coordinates...
	Successfully converged to displaced geometry.

	--- Internal Coordinate Step in ANG or DEG, aJ/ANG or AJ/DEG ---
	 ---------------------------------------------------------------------------
	   Coordinate                Previous        Force       Change         New 
	   ----------                --------       ------       ------       ------
	    1 R(1,2)          =      2.709379     0.005046     0.008658     2.718037
	    2 R(1,3)          =      2.709379     0.005046     0.008658     2.718037
	    3 L(2,1,3)        =    180.000000     0.000000     0.000000   180.000000
	    4 l(2,1,3)        =    180.000000    -0.000000     0.000000   180.000000
	 ---------------------------------------------------------------------------
	Successfully symmetrized geometry.

  ==> Convergence Check <==

  Measures of convergence in internal coordinates in au.
  Criteria marked as inactive (o), active & met (*), and active & unmet ( ).
  ---------------------------------------------------------------------------------------------
   Step     Total Energy     Delta E     MAX Force     RMS Force      MAX Disp      RMS Disp   
  ---------------------------------------------------------------------------------------------
    Convergence Criteria    1.00e-06 *    3.00e-04 *             o    1.20e-03 *             o
  ---------------------------------------------------------------------------------------------
      3    -440.81903652    9.06e-04      6.13e-04      4.33e-04 o    1.64e-02      1.16e-02 o  ~
  ---------------------------------------------------------------------------------------------

	Writing optimization data to binary file.
	Structure for next step:
	Cartesian Geometry (in Angstrom)
	   AG     0.0000000000   0.0000000000   0.0000000000
	   AG    -0.0000000000  -0.0000000000   2.7180373046
	   AG    -0.0000000000  -0.0000000000  -2.7180373046
			--------------------------
			 OPTKING Finished Execution 
			--------------------------

    Structure for next step:
    Molecular point group: d2h
    Full point group: D_inf_h

    Geometry (in Angstrom), charge = 1, multiplicity = 1:

    AG           0.000000000000     0.000000000000     0.000000000000
    AG           0.000000000000     0.000000000000     2.718037315273
    AG           0.000000000000     0.000000000000    -2.718037315273


Scratch directory: /tmp/
gradient() will perform analytic gradient computation.

*** tstart() called on compute450.bc4.acrc.priv
*** at Tue Nov  2 16:56:05 2021

   => Loading Basis Set <=

    Name: DEF2-TZVPPD
    Role: ORBITAL
    Keyword: BASIS
    atoms 1-3 entry AG         line  2174 (ECP: line  3646) file /mnt/storage/home/zw18965/.conda/envs/p4env/share/psi4/basis/def2-tzvppd.gbs 

    !!!  WARNING: ECP capability is in beta. Please check occupations closely.  !!!

   => SCAN-D3(BJ): Empirical Dispersion <=

    Grimme's -D3 (BJ-damping) Dispersion Correction
    Grimme S.; Ehrlich S.; Goerigk L. (2011), J. Comput. Chem., 32: 1456
    Parametrisation from:    J.G. Brandenburg, J. E. Bates, J. Sun, J.P. Perdew, Phys. Rev. B 94, 115144, 2016

        s6 =       1.000000
        s8 =       0.000000
        a1 =       0.538000
        a2 =       5.420000


         ---------------------------------------------------------
                                   SCF
               by Justin Turney, Rob Parrish, Andy Simmonett
                          and Daniel G. A. Smith
                              RKS Reference
                       28 Threads, 137329 MiB Core
         ---------------------------------------------------------

  ==> Geometry <==

    Molecular point group: d2h
    Full point group: D_inf_h

    Geometry (in Angstrom), charge = 1, multiplicity = 1:

       Center              X                  Y                   Z               Mass       
    ------------   -----------------  -----------------  -----------------  -----------------
         AG           0.000000000000     0.000000000000     0.000000000000   106.905091600000
         AG           0.000000000000     0.000000000000     2.718037315273   106.905091600000
         AG           0.000000000000     0.000000000000    -2.718037315273   106.905091600000

  Running in d2h symmetry.

  Rotational constants: A = ************  B =      0.01067  C =      0.01067 [cm^-1]
  Rotational constants: A = ************  B =    319.94696  C =    319.94696 [MHz]
  Nuclear repulsion =  175.708563655890231

  Charge       = 1
  Multiplicity = 1
  Electrons    = 56
  Nalpha       = 28
  Nbeta        = 28

  ==> Algorithm <==

  SCF Algorithm Type is DF.
  DIIS enabled.
  MOM disabled.
  Fractional occupation disabled.
  Guess Type is READ.
  Energy threshold   = 1.00e-08
  Density threshold  = 1.00e-08
  Integral threshold = 1.00e-12

  ==> Primary Basis <==

  Basis Set: DEF2-TZVPPD
    Blend: DEF2-TZVPPD
    Number of shells: 48
    Number of basis functions: 168
    Number of Cartesian functions: 213
    Spherical Harmonics?: true
    Max angular momentum: 4

  Core potential: DEF2-TZVPPD
    Number of shells: 12
    Number of ECP primitives: 42
    Number of ECP core electrons: 84
    Max angular momentum: 3

  ==> DFT Potential <==

   => Composite Functional: SCAN-D3BJ <= 

    SCAN Meta-GGA XC Functional
(10.1103/PhysRevLett.115.036402)
    J. Sun, A. Ruzsinszky, J. P. Perdew  Phys. Rev. Lett. 115, 036402, 2015


    Deriv               =              1
    GGA                 =           TRUE
    Meta                =           TRUE

    Exchange Hybrid     =          FALSE
    MP2 Hybrid          =          FALSE

   => Exchange Functionals <=

    1.0000   XC_MGGA_X_SCAN

   => Correlation Functionals <=

    1.0000   XC_MGGA_C_SCAN

   => LibXC Density Thresholds  <==

    XC_MGGA_C_SCAN:  1.00E-15 
    XC_MGGA_X_SCAN:  1.00E-15 

   => Molecular Quadrature <=

    Radial Scheme          =       TREUTLER
    Pruning Scheme         =           NONE
    Nuclear Scheme         =       TREUTLER

    BS radius alpha        =              1
    Pruning alpha          =              1
    Radial Points          =             75
    Spherical Points       =            302
    Total Points           =          62768
    Total Blocks           =            624
    Max Points             =            253
    Max Functions          =            143
    Weights Tolerance      =       1.00E-15

   => Loading Basis Set <=

    Name: (DEF2-TZVPPD AUX)
    Role: JKFIT
    Keyword: DF_BASIS_SCF
    atoms 1-3 entry AG         line  4364 file /mnt/storage/home/zw18965/.conda/envs/p4env/share/psi4/basis/def2-universal-jkfit.gbs 

   => Loading Basis Set <=

    Name: DEF2-TZVPPD
    Role: ORBITAL
    Keyword: BASIS
    atoms 1-3 entry AG         line  2174 (ECP: line  3646) file /mnt/storage/home/zw18965/.conda/envs/p4env/share/psi4/basis/def2-tzvppd.gbs 

    !!!  WARNING: ECP capability is in beta. Please check occupations closely.  !!!

  Reading orbitals from file /tmp/Ag03C1_LIN.default.13312.180.npy, no projection.

  ==> Integral Setup <==

  DFHelper Memory: AOs need 0.158 GiB; user supplied 100.131 GiB. Using in-core AOs.

  ==> MemDFJK: Density-Fitted J/K Matrices <==

    J tasked:                   Yes
    K tasked:                    No
    wK tasked:                   No
    OpenMP threads:              28
    Memory [MiB]:            102533
    Algorithm:                 Core
    Schwarz Cutoff:           1E-12
    Mask sparsity (%):      13.5488
    Fitting Condition:        1E-10

   => Auxiliary Basis Set <=

  Basis Set: (DEF2-TZVPPD AUX)
    Blend: DEF2-UNIVERSAL-JKFIT
    Number of shells: 147
    Number of basis functions: 765
    Number of Cartesian functions: 1152
    Spherical Harmonics?: true
    Max angular momentum: 6

  Cached 100.0% of DFT collocation blocks in 0.452 [GiB].

  Minimum eigenvalue in the overlap matrix is 1.8409976351E-03.
  Reciprocal condition number of the overlap matrix is 4.6773833308E-04.
    Using symmetric orthogonalization.

  ==> Pre-Iterations <==

  SCF Guess: Orbitals guess was supplied from a previous computation.

   -------------------------------------------------------
    Irrep   Nso     Nmo     Nalpha   Nbeta   Ndocc  Nsocc
   -------------------------------------------------------
     Ag        38      38       8       8       8       0
     B1g       12      12       2       2       2       0
     B2g       18      18       3       3       3       0
     B3g       18      18       3       3       3       0
     Au         9       9       1       1       1       0
     B1u       31      31       5       5       5       0
     B2u       21      21       3       3       3       0
     B3u       21      21       3       3       3       0
   -------------------------------------------------------
    Total     168     168      28      28      28       0
   -------------------------------------------------------

  ==> Iterations <==

                           Total Energy        Delta E     RMS |[F,P]|

   @DF-RKS iter   0:  -440.81702280356751   -4.40817e+02   2.01162e-04 
   @DF-RKS iter   1:  -440.81876880306692   -1.74600e-03   1.73532e-05 DIIS
   @DF-RKS iter   2:  -440.81876787407191    9.28995e-07   3.30423e-05 DIIS
   @DF-RKS iter   3:  -440.81876945089454   -1.57682e-06   4.88794e-06 DIIS
   @DF-RKS iter   4:  -440.81876947330244   -2.24079e-08   1.91663e-06 DIIS
   @DF-RKS iter   5:  -440.81876947942851   -6.12607e-09   5.56540e-07 DIIS
   @DF-RKS iter   6:  -440.81876947995005   -5.21538e-10   1.09960e-07 DIIS
   @DF-RKS iter   7:  -440.81876947996125   -1.11982e-11   1.87209e-08 DIIS
   @DF-RKS iter   8:  -440.81876947996216   -9.09495e-13   5.22365e-09 DIIS
  Energy and wave function converged.


  ==> Post-Iterations <==

   Electrons on quadrature grid:
      Ntotal   =   55.9999790777 ; deviation = -2.092e-05 

    Orbital Energies [Eh]
    ---------------------

    Doubly Occupied:                                                      

       1Ag    -3.885332     1B1u   -3.885331     2Ag    -3.853253  
       2B1u   -2.476093     3Ag    -2.475950     1B2u   -2.473541  
       1B3u   -2.473541     1B3g   -2.473540     1B2g   -2.473540  
       3B1u   -2.445385     2B2u   -2.438053     2B3u   -2.438053  
       4Ag    -0.508391     2B2g   -0.486614     2B3g   -0.486614  
       4B1u   -0.482126     3B3u   -0.478694     3B2u   -0.478694  
       1B1g   -0.475162     5Ag    -0.475140     1Au    -0.474859  
       5B1u   -0.474838     3B3g   -0.437691     3B2g   -0.437691  
       2B1g   -0.437404     6Ag    -0.437370     7Ag    -0.435827  
       8Ag    -0.375143  

    Virtual:                                                              

       6B1u   -0.342207     9Ag    -0.253811     4B2u   -0.191156  
       4B3u   -0.191156     7B1u   -0.172293     4B3g   -0.149085  
       4B2g   -0.149085     5B3u   -0.082607     5B2u   -0.082607  
      10Ag    -0.056501    11Ag    -0.037234     8B1u   -0.019297  
       9B1u    0.003713     6B2u    0.036505     6B3u    0.036505  
      12Ag     0.043162     5B3g    0.065309     5B2g    0.065309  
       7B2u    0.105809     7B3u    0.105809    13Ag     0.118207  
      10B1u    0.125402    14Ag     0.195305     3B1g    0.195308  
       6B2g    0.208669     6B3g    0.208669    11B1u    0.236099  
       2Au     0.236422    12B1u    0.236423     4B1g    0.316852  
      15Ag     0.316861     8B3u    0.319550     8B2u    0.319550  
      16Ag     0.423724    13B1u    0.489370     7B2g    0.500845  
       7B3g    0.500845    17Ag     0.592416    14B1u    1.309016  
       9B3u    1.346770     9B2u    1.346770     3Au     1.376976  
      15B1u    1.377144     5B1g    1.380490    18Ag     1.380654  
      10B3u    1.380903    10B2u    1.380903     8B2g    1.380909  
       8B3g    1.380909     9B3g    1.393244     9B2g    1.393244  
      11B2u    1.398270    11B3u    1.398270    19Ag     1.407779  
       4Au     1.420479    16B1u    1.420705    12B2u    1.424990  
      12B3u    1.424990    13B2u    1.434944    13B3u    1.434944  
      17B1u    1.446095    10B3g    1.459909    10B2g    1.459909  
      20Ag     1.474713    18B1u    1.533059    14B2u    1.544654  
      14B3u    1.544654    21Ag     1.680946    19B1u    1.719643  
      22Ag     1.829308     6B1g    1.829336    20B1u    1.836686  
       5Au     1.836707    11B2g    1.869022    11B3g    1.869022  
      23Ag     1.897695     7B1g    1.897735    15B3u    1.903119  
      15B2u    1.903119    21B1u    1.961707    24Ag     1.974061  
      12B2g    2.007704    12B3g    2.007704    25Ag     2.095959  
      22B1u    2.130028    26Ag     2.481692    23B1u    4.632969  
      16B3u    4.654671    16B2u    4.654671     6Au     4.673889  
      24B1u    4.674308    17B3u    4.677216    17B2u    4.677216  
      13B2g    4.677221    13B3g    4.677221     8B1g    4.677731  
      27Ag     4.678142    14B3g    4.710694    14B2g    4.710694  
       7Au     4.710840    25B1u    4.711433    18B3u    4.712534  
      18B2u    4.712534    19B3u    4.759790    19B2u    4.759790  
      28Ag     4.819238    26B1u    4.937793    20B2u    5.429599  
      20B3u    5.429599     8Au     5.430222     9B1g    5.430479  
      27B1u    5.430612    29Ag     5.430868    15B3g    5.431079  
      15B2g    5.431079    21B3u    5.431602    21B2u    5.431602  
      28B1u    5.431616    16B2g    5.431674    16B3g    5.431674  
      30Ag     5.432713    29B1u    5.432744    10B1g    5.433384  
       9Au     5.433384    31Ag     5.433601    17B2g    5.465819  
      17B3g    5.465819    11B1g    5.466068    32Ag     5.466644  
      18B2g    5.469740    18B3g    5.469740    33Ag     5.473796  
      12B1g    5.474737    34Ag     5.475326    35Ag    33.224816  
      30B1u   33.345276    36Ag    33.733046    37Ag   110.659256  
      31B1u  110.694154    38Ag   110.834310  

    Final Occupation by Irrep:
             Ag   B1g   B2g   B3g    Au   B1u   B2u   B3u 
    DOCC [     8,    2,    3,    3,    1,    5,    3,    3 ]

  @DF-RKS Final Energy:  -440.81876947996216

   => Energetics <=

    Nuclear Repulsion Energy =            175.7085636558902308
    One-Electron Energy =               -1124.2475626108921460
    Two-Electron Energy =                 550.0549598377724578
    DFT Exchange-Correlation Energy =     -42.3342197427326568
    Empirical Dispersion Energy =          -0.0005106200000000
    VV10 Nonlocal Energy =                  0.0000000000000000
    Total Energy =                       -440.8187694799621568

Computation Completed


Properties will be evaluated at   0.000000,   0.000000,   0.000000 [a0]

Properties computed using the SCF density matrix

  Nuclear Dipole Moment: [e a0]
     X:     0.0000      Y:     0.0000      Z:    -0.0000

  Electronic Dipole Moment: [e a0]
     X:     0.0000      Y:     0.0000      Z:     0.0000

  Dipole Moment: [e a0]
     X:     0.0000      Y:     0.0000      Z:    -0.0000     Total:     0.0000

  Dipole Moment: [D]
[...]
   @DF-RKS iter   1:  -440.80000761705219   -4.53417e-01   2.12764e-03 DIIS
   @DF-RKS iter   2:  -440.75691511395672    4.30925e-02   4.15134e-03 DIIS
   @DF-RKS iter   3:  -440.81767766040508   -6.07625e-02   7.01346e-04 DIIS
   @DF-RKS iter   4:  -440.81865581328969   -9.78153e-04   1.48277e-04 DIIS
   @DF-RKS iter   5:  -440.81869433970570   -3.85264e-05   4.31752e-05 DIIS
   @DF-RKS iter   6:  -440.81869961809144   -5.27839e-06   1.44503e-05 DIIS
   @DF-RKS iter   7:  -440.81870020470706   -5.86616e-07   2.06622e-06 DIIS
   @DF-RKS iter   8:  -440.81870022460515   -1.98981e-08   2.04893e-07 DIIS
   @DF-RKS iter   9:  -440.81870022477545   -1.70303e-10   1.97861e-08 DIIS
   @DF-RKS iter  10:  -440.81870022477750   -2.04636e-12   2.53091e-09 DIIS
  Energy and wave function converged.


  ==> Post-Iterations <==

   Electrons on quadrature grid:
      Ntotal   =   55.9999794355 ; deviation = -2.056e-05 

    Orbital Energies [Eh]
    ---------------------

    Doubly Occupied:                                                      

       1A1    -3.885259     1B2    -3.885259     2A1    -3.853155  
       2B2    -2.476010     3A1    -2.475870     4A1    -2.473474  
       1B1    -2.473474     3B2    -2.473473     1A2    -2.473473  
       4B2    -2.445273     5A1    -2.437966     2B1    -2.437966  
       6A1    -0.508148     5B2    -0.486467     2A2    -0.486467  
       6B2    -0.482031     7A1    -0.478611     3B1    -0.478611  
       4B1    -0.475097     8A1    -0.475074     3A2    -0.474798  
       7B2    -0.474775     8B2    -0.437653     4A2    -0.437653  
       5B1    -0.437332     9A1    -0.437297    10A1    -0.435817  
      11A1    -0.375033  

    Virtual:                                                              

       9B2    -0.342154    12A1    -0.253872     6B1    -0.191075  
      13A1    -0.191075    10B2    -0.172335     5A2    -0.149082  
      11B2    -0.149082    14A1    -0.082683     7B1    -0.082683  
      15A1    -0.056608    16A1    -0.037261    12B2    -0.019281  
      13B2     0.003650    17A1     0.036575     8B1     0.036575  
      18A1     0.043088     6A2     0.065320    14B2     0.065320  
      19A1     0.105781     9B1     0.105781    20A1     0.118020  
      15B2     0.125357    21A1     0.195418    10B1     0.195421  
       7A2     0.208473    16B2     0.208473    17B2     0.235661  
       8A2     0.236476    18B2     0.236477    11B1     0.316752  
      22A1     0.316762    12B1     0.319350    23A1     0.319350  
      24A1     0.423451    19B2     0.489091     9A2     0.500601  
      20B2     0.500601    25A1     0.592533    21B2     1.310128  
      26A1     1.347031    13B1     1.347031    10A2     1.377083  
      22B2     1.377251    14B1     1.380539    27A1     1.380705  
      15B1     1.380961    28A1     1.380961    11A2     1.380967  
      23B2     1.380967    12A2     1.393226    24B2     1.393226  
      29A1     1.398154    16B1     1.398154    30A1     1.407813  
      13A2     1.420514    25B2     1.420742    17B1     1.425050  
      31A1     1.425050    18B1     1.434993    32A1     1.434993  
      26B2     1.445458    14A2     1.459698    27B2     1.459698  
      33A1     1.474669    28B2     1.532948    19B1     1.544438  
      34A1     1.544438    35A1     1.680821    29B2     1.719046  
      36A1     1.829347    20B1     1.829374    30B2     1.836735  
      15A2     1.836755    16A2     1.869218    31B2     1.869218  
      37A1     1.897703    21B1     1.897742    22B1     1.903086  
      38A1     1.903086    32B2     1.961529    39A1     1.974085  
      17A2     2.007559    33B2     2.007559    40A1     2.095201  
      34B2     2.129551    41A1     2.480804    35B2     4.633374  
      23B1     4.655061    42A1     4.655061    18A2     4.673994  
      36B2     4.674411    24B1     4.677281    43A1     4.677281  
      19A2     4.677286    37B2     4.677286    25B1     4.677785  
      44A1     4.678195    20A2     4.710594    38B2     4.710594  
      21A2     4.710890    39B2     4.711481    26B1     4.712616  
      45A1     4.712616    46A1     4.759415    27B1     4.759415  
      47A1     4.818824    40B2     4.936666    28B1     5.429674  
      48A1     5.429674    22A2     5.430294    29B1     5.430549  
      41B2     5.430685    49A1     5.430940    23A2     5.431152  
      42B2     5.431152    43B2     5.431657    50A1     5.431671  
      30B1     5.431671    44B2     5.431744    24A2     5.431744  
      51A1     5.432777    45B2     5.432807    31B1     5.433445  
      25A2     5.433445    52A1     5.433666    26A2     5.465907  
      46B2     5.465907    32B1     5.466159    53A1     5.466740  
      47B2     5.469824    27A2     5.469824    54A1     5.473867  
      33B1     5.474806    55A1     5.475316    56A1    33.224474  
      48B2    33.344540    57A1    33.731712    58A1   110.659216  
      49B2   110.693970    59A1   110.833931  

    Final Occupation by Irrep:
             A1    A2    B1    B2 
    DOCC [    11,    4,    5,    8 ]

  @DF-RKS Final Energy:  -440.81870022477750

   => Energetics <=

    Nuclear Repulsion Energy =            175.5681607288933890
    One-Electron Energy =               -1123.9714708078190597
    Two-Electron Energy =                 549.9190738365625748
    DFT Exchange-Correlation Energy =     -42.3339535624144361
    Empirical Dispersion Energy =          -0.0005104200000000
    VV10 Nonlocal Energy =                  0.0000000000000000
    Total Energy =                       -440.8187002247775013

Computation Completed


Properties will be evaluated at   0.000000,   0.000000,   0.000000 [a0]

Properties computed using the SCF density matrix

  Nuclear Dipole Moment: [e a0]
     X:     0.0000      Y:     0.0000      Z:    -0.0000

  Electronic Dipole Moment: [e a0]
     X:     0.0001      Y:     0.0000      Z:     0.0000

  Dipole Moment: [e a0]
     X:     0.0001      Y:     0.0000      Z:    -0.0000     Total:     0.0001

  Dipole Moment: [D]
     X:     0.0003      Y:     0.0000      Z:    -0.0000     Total:     0.0003


*** tstop() called on compute450.bc4.acrc.priv at Tue Nov  2 18:01:45 2021
Module time:
	user time   =      94.70 seconds =       1.58 minutes
	system time =       2.18 seconds =       0.04 minutes
	total time  =         11 seconds =       0.18 minutes
Total time:
	user time   =   25243.76 seconds =     420.73 minutes
	system time =     240.27 seconds =       4.00 minutes
	total time  =       4728 seconds =      78.80 minutes

*** tstart() called on compute450.bc4.acrc.priv
*** at Tue Nov  2 18:01:45 2021


         ------------------------------------------------------------
                                   SCF GRAD                          
                          Rob Parrish, Justin Turney,                
                       Andy Simmonett, and Alex Sokolov              
         ------------------------------------------------------------

  ==> Geometry <==

    Molecular point group: c2v
    Full point group: C2v

    Geometry (in Angstrom), charge = 1, multiplicity = 1:

       Center              X                  Y                   Z               Mass       
    ------------   -----------------  -----------------  -----------------  -----------------
         AG          -0.000208942272     0.000000000000     0.000000000000   106.905091600000
         AG           0.000104471136     0.000000000000     2.720210931817   106.905091600000
         AG           0.000104471136     0.000000000000    -2.720210931817   106.905091600000

  Nuclear repulsion =  175.568160728893389

  ==> Basis Set <==

  Basis Set: DEF2-TZVPPD
    Blend: DEF2-TZVPPD
    Number of shells: 48
    Number of basis functions: 168
    Number of Cartesian functions: 213
    Spherical Harmonics?: true
    Max angular momentum: 4

  Core potential: DEF2-TZVPPD
    Number of shells: 12
    Number of ECP primitives: 42
    Number of ECP core electrons: 84
    Max angular momentum: 3

  ==> DFJKGrad: Density-Fitted SCF Gradients <==

    Gradient:                    1
    J tasked:                  Yes
    K tasked:                   No
    wK tasked:                  No
    OpenMP threads:             28
    Integrals threads:          28
    Memory [MiB]:           102996
    Schwarz Cutoff:          1E-12
    Fitting Condition:       1E-10

   => Auxiliary Basis Set <=

  Basis Set: (DEF2-TZVPPD AUX)
    Blend: DEF2-UNIVERSAL-JKFIT
    Number of shells: 147
    Number of basis functions: 765
    Number of Cartesian functions: 1152
    Spherical Harmonics?: true
    Max angular momentum: 6

  ==> DFT Potential <==

   => Composite Functional: SCAN-D3BJ <= 

    SCAN Meta-GGA XC Functional
(10.1103/PhysRevLett.115.036402)
    J. Sun, A. Ruzsinszky, J. P. Perdew  Phys. Rev. Lett. 115, 036402, 2015


    Deriv               =              1
    GGA                 =           TRUE
    Meta                =           TRUE

    Exchange Hybrid     =          FALSE
    MP2 Hybrid          =          FALSE

   => Exchange Functionals <=

    1.0000   XC_MGGA_X_SCAN

   => Correlation Functionals <=

    1.0000   XC_MGGA_C_SCAN

   => LibXC Density Thresholds  <==

    XC_MGGA_C_SCAN:  1.00E-15 
    XC_MGGA_X_SCAN:  1.00E-15 

   => Molecular Quadrature <=

    Radial Scheme          =       TREUTLER
    Pruning Scheme         =           NONE
    Nuclear Scheme         =       TREUTLER

    BS radius alpha        =              1
    Pruning alpha          =              1
    Radial Points          =             75
    Spherical Points       =            302
    Total Points           =          62766
    Total Blocks           =            623
    Max Points             =            255
    Max Functions          =            144
    Weights Tolerance      =       1.00E-15


  -Total Gradient:
     Atom            X                  Y                   Z
    ------   -----------------  -----------------  -----------------
       1        0.000017225377     0.000000000000     0.000000000000
       2       -0.000008164355     0.000000000000    -0.071806930302
       3       -0.000008164355     0.000000000000     0.071806930302


*** tstop() called on compute450.bc4.acrc.priv at Tue Nov  2 18:01:57 2021
Module time:
	user time   =      49.11 seconds =       0.82 minutes
	system time =       1.55 seconds =       0.03 minutes
	total time  =         12 seconds =       0.20 minutes
Total time:
	user time   =   25296.33 seconds =     421.61 minutes
	system time =     241.98 seconds =       4.03 minutes
	total time  =       4740 seconds =      79.00 minutes


  ==> Adding ECP gradient terms (computed numerically) <==

  -ECP Gradient:
     Atom            X                  Y                   Z
    ------   -----------------  -----------------  -----------------
       1       -0.000014999380     0.000000000000     0.000000000000
       2        0.000007499790     0.000000000000     0.071779359777
       3        0.000007499790     0.000000000000    -0.071779359777


  -Total Gradient:
     Atom            X                  Y                   Z
    ------   -----------------  -----------------  -----------------
       1        0.000002225998     0.000000000000     0.000000000000
       2       -0.000000664564     0.000000000000    -0.000027570525
       3       -0.000000664564     0.000000000000     0.000027570525


         ----------------------------------------------------------
                                   FINDIF
                     R. A. King and Jonathon Misiewicz
         ---------------------------------------------------------

  Computing second-derivative from gradients using projected, 
  symmetry-adapted, cartesian coordinates.

  6 gradients passed in, including the reference geometry.
  Generating complete list of displacements from unique ones.

    Operation 3 takes plus displacements of irrep B1u to minus ones.
    Operation 2 takes plus displacements of irrep B2u to minus ones.
    Operation 2 takes plus displacements of irrep B3u to minus ones.

-------------------------------------------------------------


  ==> Harmonic Vibrational Analysis <==

  non-mass-weighted Hessian:       Symmetric? True   Hermitian? True   Lin Dep Dim?  5 (0)
  projection of translations (True) and rotations (True) removed 5 degrees of freedom (5)
  total projector:                 Symmetric? True   Hermitian? True   Lin Dep Dim?  5 (5)
  mass-weighted Hessian:           Symmetric? True   Hermitian? True   Lin Dep Dim?  5 (0)
  pre-proj  low-frequency mode:    0.0000i [cm^-1]
  pre-proj  low-frequency mode:    0.0000i [cm^-1]
  pre-proj  low-frequency mode:    0.0000i [cm^-1]
  pre-proj  low-frequency mode:    0.0000i [cm^-1]
  pre-proj  low-frequency mode:    0.0000  [cm^-1]
  pre-proj  low-frequency mode:    0.0000  [cm^-1]
  pre-proj  low-frequency mode:    0.0000  [cm^-1]
  pre-proj  low-frequency mode:   83.7298  [cm^-1]
  pre-proj  all modes:['34.7327i' '34.7278i' '0.0000i' '0.0000i' '0.0000' '0.0000' '0.0000'
 '83.7298' '138.7705']
  projected mass-weighted Hessian: Symmetric? True   Hermitian? True   Lin Dep Dim?  5 (5)
  post-proj low-frequency mode:   34.7327i [cm^-1] (V)
  post-proj low-frequency mode:   34.7278i [cm^-1] (V)
  post-proj low-frequency mode:    0.0000i [cm^-1] (TR)
  post-proj low-frequency mode:    0.0000i [cm^-1] (TR)
  post-proj low-frequency mode:    0.0000  [cm^-1] (TR)
  post-proj low-frequency mode:    0.0000  [cm^-1] (TR)
  post-proj low-frequency mode:    0.0000  [cm^-1] (TR)
  post-proj low-frequency mode:   83.7298  [cm^-1] (V)
  post-proj  all modes:['34.7327i' '34.7278i' '0.0000i' '0.0000i' '0.0000' '0.0000' '0.0000'
 '83.7298' '138.7705']

  Vibration                       1                   2                   8           
  Freq [cm^-1]                 34.7327i            34.7278i            83.7298        
  Irrep                          B3u                 B2u                  Ag          
  Reduced mass [u]             106.9051            106.9051            106.9051       
  Force const [mDyne/A]        -0.0760             -0.0760              0.4416        
  Turning point v=0 [a0]        0.0000              0.0000              0.1160        
  RMS dev v=0 [a0 u^1/2]        0.0000              0.0000              0.8479        
  Char temp [K]                 0.0000              0.0000             120.4685       
  ----------------------------------------------------------------------------------
      1   AG               0.82  0.00  0.00   -0.00  0.82  0.00    0.00 -0.00  0.00   
      2   AG              -0.41  0.00  0.00   -0.00 -0.41 -0.00   -0.00 -0.00  0.71   
      3   AG              -0.41  0.00  0.00    0.00 -0.41 -0.00    0.00  0.00 -0.71   

  Vibration                       9           
  Freq [cm^-1]                 138.7705       
  Irrep                          B1u          
  Reduced mass [u]             106.9051       
  Force const [mDyne/A]         1.2130        
  Turning point v=0 [a0]        0.0901        
  RMS dev v=0 [a0 u^1/2]        0.6586        
  Char temp [K]                199.6599       
  ----------------------------------------------------------------------------------
      1   AG              -0.00  0.00  0.82   
      2   AG              -0.00 -0.00 -0.41   
      3   AG               0.00  0.00 -0.41   

  ==> Thermochemistry Components <==

  Entropy, S
    Electronic S            0.000 [cal/(mol K)]        0.000 [J/(mol K)]       0.00000000 [mEh/K] (multiplicity = 1)
    Translational S        43.192 [cal/(mol K)]      180.714 [J/(mol K)]       0.06883047 [mEh/K] (mol. weight = 320.7153 [u], P = 101325.00 [Pa])
    Rotational S           20.234 [cal/(mol K)]       84.661 [J/(mol K)]       0.03224560 [mEh/K] (symmetry no. = 2)
    Vibrational S           6.622 [cal/(mol K)]       27.707 [J/(mol K)]       0.01055322 [mEh/K]
  Total S                  70.048 [cal/(mol K)]      293.083 [J/(mol K)]       0.11162929 [mEh/K]
  Correction S              0.000 [cal/(mol K)]        0.000 [J/(mol K)]       0.00000000 [mEh/K]

  Constant volume heat capacity, Cv
    Electronic Cv           0.000 [cal/(mol K)]        0.000 [J/(mol K)]       0.00000000 [mEh/K]
    Translational Cv        2.981 [cal/(mol K)]       12.472 [J/(mol K)]       0.00475022 [mEh/K]
    Rotational Cv           1.987 [cal/(mol K)]        8.314 [J/(mol K)]       0.00316681 [mEh/K]
    Vibrational Cv          3.875 [cal/(mol K)]       16.213 [J/(mol K)]       0.00617515 [mEh/K]
  Total Cv                  8.843 [cal/(mol K)]       36.999 [J/(mol K)]       0.01409217 [mEh/K]
  Correction Cv             0.000 [cal/(mol K)]        0.000 [J/(mol K)]       0.00000000 [mEh/K]

  Constant pressure heat capacity, Cp
    Electronic Cp           0.000 [cal/(mol K)]        0.000 [J/(mol K)]       0.00000000 [mEh/K]
    Translational Cp        4.968 [cal/(mol K)]       20.786 [J/(mol K)]       0.00791703 [mEh/K]
    Rotational Cp           1.987 [cal/(mol K)]        8.314 [J/(mol K)]       0.00316681 [mEh/K]
    Vibrational Cp          3.875 [cal/(mol K)]       16.213 [J/(mol K)]       0.00617515 [mEh/K]
  Total Cp                 10.830 [cal/(mol K)]       45.313 [J/(mol K)]       0.01725898 [mEh/K]
  Correction Cp             0.000 [cal/(mol K)]        0.000 [J/(mol K)]       0.00000000 [mEh/K]

  ==> Thermochemistry Energy Analysis <==

  Raw electronic energy, E0
  Total E0, Electronic energy at well bottom at 0 [K]                 -440.81870022 [Eh]

  Zero-point energy, ZPE_vib = Sum_i nu_i / 2
    Electronic ZPE          0.000 [kcal/mol]        0.000 [kJ/mol]       0.00000000 [Eh]
    Translational ZPE       0.000 [kcal/mol]        0.000 [kJ/mol]       0.00000000 [Eh]
    Rotational ZPE          0.000 [kcal/mol]        0.000 [kJ/mol]       0.00000000 [Eh]
    Vibrational ZPE         0.318 [kcal/mol]        1.331 [kJ/mol]       0.00050689 [Eh]         111.250 [cm^-1]
  Correction ZPE            0.318 [kcal/mol]        1.331 [kJ/mol]       0.00050689 [Eh]         111.250 [cm^-1]
  Total ZPE, Electronic energy at 0 [K]                               -440.81819333 [Eh]

  Thermal Energy, E (includes ZPE)
    Electronic E            0.000 [kcal/mol]        0.000 [kJ/mol]       0.00000000 [Eh]
    Translational E         0.889 [kcal/mol]        3.718 [kJ/mol]       0.00141628 [Eh]
    Rotational E            0.592 [kcal/mol]        2.479 [kJ/mol]       0.00094418 [Eh]
    Vibrational E           1.215 [kcal/mol]        5.084 [kJ/mol]       0.00193620 [Eh]
  Correction E              2.696 [kcal/mol]       11.281 [kJ/mol]       0.00429667 [Eh]
  Total E, Electronic energy at  298.15 [K]                           -440.81440356 [Eh]

  Enthalpy, H_trans = E_trans + k_B * T
    Electronic H            0.000 [kcal/mol]        0.000 [kJ/mol]       0.00000000 [Eh]
    Translational H         1.481 [kcal/mol]        6.197 [kJ/mol]       0.00236046 [Eh]
    Rotational H            0.592 [kcal/mol]        2.479 [kJ/mol]       0.00094418 [Eh]
    Vibrational H           1.215 [kcal/mol]        5.084 [kJ/mol]       0.00193620 [Eh]
  Correction H              3.289 [kcal/mol]       13.760 [kJ/mol]       0.00524085 [Eh]
  Total H, Enthalpy at  298.15 [K]                                    -440.81345938 [Eh]

  Gibbs free energy, G = H - T * S
    Electronic G            0.000 [kcal/mol]        0.000 [kJ/mol]       0.00000000 [Eh]
    Translational G       -11.396 [kcal/mol]      -47.683 [kJ/mol]      -0.01816134 [Eh]
    Rotational G           -5.440 [kcal/mol]      -22.763 [kJ/mol]      -0.00866984 [Eh]
    Vibrational G          -0.759 [kcal/mol]       -3.177 [kJ/mol]      -0.00121024 [Eh]
  Correction G            -17.596 [kcal/mol]      -73.623 [kJ/mol]      -0.02804142 [Eh]
  Total G, Free enthalpy at  298.15 [K]                               -440.84674165 [Eh]

    Psi4 stopped on: Tuesday, 02 November 2021 06:05PM
    Psi4 wall time for execution: 1:22:59.42

*** Psi4 exiting successfully. Buy a developer a beer!
