
    -----------------------------------------------------------------------
          Psi4: An Open-Source Ab Initio Electronic Structure Package
                               Psi4 1.4.1 release

                         Git: Rev {HEAD} cd00f19 


    D. G. A. Smith, L. A. Burns, A. C. Simmonett, R. M. Parrish,
    M. C. Schieber, R. Galvelis, P. Kraus, H. Kruse, R. Di Remigio,
    A. Alenaizan, A. M. James, S. Lehtola, J. P. Misiewicz, M. Scheurer,
    R. A. Shaw, J. B. Schriber, Y. Xie, Z. L. Glick, D. A. Sirianni,
    J. S. O'Brien, J. M. Waldrop, A. Kumar, E. G. Hohenstein,
    B. P. Pritchard, B. R. Brooks, H. F. Schaefer III, A. Yu. Sokolov,
    K. Patkowski, A. E. DePrince III, U. Bozkaya, R. A. King,
    F. A. Evangelista, J. M. Turney, T. D. Crawford, C. D. Sherrill,
    J. Chem. Phys. 152(18) 184108 (2020). https://doi.org/10.1063/5.0006002

                            Additional Code Authors
    E. T. Seidl, C. L. Janssen, E. F. Valeev, M. L. Leininger,
    J. F. Gonthier, R. M. Richard, H. R. McAlexander, M. Saitow, X. Wang,
    P. Verma, and M. H. Lechner

             Previous Authors, Complete List of Code Contributors,
                       and Citations for Specific Modules
    https://github.com/psi4/psi4/blob/master/codemeta.json
    https://github.com/psi4/psi4/graphs/contributors
    http://psicode.org/psi4manual/master/introduction.html#citing-psifour

    -----------------------------------------------------------------------


    Psi4 started on: Friday, 05 November 2021 08:50AM

    Process ID: 22248
    Host:       compute286.bc4.acrc.priv
    PSIDATADIR: /mnt/storage/home/zw18965/.conda/envs/p4env/share/psi4
    Memory:     500.0 MiB
    Threads:    28
    
  ==> Input File <==

--------------------------------------------------------------------------
memory 120 GB

molecule {
0 1
Au       0.000000    0.000000    0.196853 
F        0.000000    0.000000   -1.727931 
 }

set dynamic_level 1
set basis Def2-TZVPPD

optimize("SCAN-D3BJ")
frequencies("SCAN-D3BJ")
--------------------------------------------------------------------------

  Memory set to 111.759 GiB by Python driver.

Scratch directory: /tmp/
gradient() will perform analytic gradient computation.

*** tstart() called on compute286.bc4.acrc.priv
*** at Fri Nov  5 08:50:10 2021

   => Loading Basis Set <=

    Name: DEF2-TZVPPD
    Role: ORBITAL
    Keyword: BASIS
    atoms 1 entry AU         line  2995 (ECP: line  4084) file /mnt/storage/home/zw18965/.conda/envs/p4env/share/psi4/basis/def2-tzvppd.gbs 
    atoms 2 entry F          line   257 file /mnt/storage/home/zw18965/.conda/envs/p4env/share/psi4/basis/def2-tzvppd.gbs 

    !!!  WARNING: ECP capability is in beta. Please check occupations closely.  !!!

   => SCAN-D3(BJ): Empirical Dispersion <=

    Grimme's -D3 (BJ-damping) Dispersion Correction
    Grimme S.; Ehrlich S.; Goerigk L. (2011), J. Comput. Chem., 32: 1456
    Parametrisation from:    J.G. Brandenburg, J. E. Bates, J. Sun, J.P. Perdew, Phys. Rev. B 94, 115144, 2016

        s6 =       1.000000
        s8 =       0.000000
        a1 =       0.538000
        a2 =       5.420000


         ---------------------------------------------------------
                                   SCF
               by Justin Turney, Rob Parrish, Andy Simmonett
                          and Daniel G. A. Smith
                              RKS Reference
                       28 Threads, 114440 MiB Core
         ---------------------------------------------------------

  ==> Geometry <==

    Molecular point group: c2v
    Full point group: C_inf_v

    Geometry (in Angstrom), charge = 0, multiplicity = 1:

       Center              X                  Y                   Z               Mass       
    ------------   -----------------  -----------------  -----------------  -----------------
         AU           0.000000000000     0.000000000000     0.169322932800   196.966568790000
         F            0.000000000000     0.000000000000    -1.755461067200    18.998403162730

  Running in c2v symmetry.

  Rotational constants: A = ************  B =      0.26261  C =      0.26261 [cm^-1]
  Rotational constants: A = ************  B =   7872.75793  C =   7872.75793 [MHz]
  Nuclear repulsion =   47.012705334505057

  Charge       = 0
  Multiplicity = 1
  Electrons    = 28
  Nalpha       = 14
  Nbeta        = 14

  ==> Algorithm <==

  SCF Algorithm Type is DF.
  DIIS enabled.
  MOM disabled.
  Fractional occupation disabled.
  Guess Type is SAD.
  Energy threshold   = 1.00e-08
  Density threshold  = 1.00e-08
  Integral threshold = 1.00e-12

  ==> Primary Basis <==

  Basis Set: DEF2-TZVPPD
    Blend: DEF2-TZVPPD
    Number of shells: 31
    Number of basis functions: 99
    Number of Cartesian functions: 120
    Spherical Harmonics?: true
    Max angular momentum: 4

  Core potential: DEF2-TZVPPD
    Number of shells: 4
    Number of ECP primitives: 14
    Number of ECP core electrons: 60
    Max angular momentum: 3

  ==> DFT Potential <==

   => Composite Functional: SCAN-D3BJ <= 

    SCAN Meta-GGA XC Functional
(10.1103/PhysRevLett.115.036402)
    J. Sun, A. Ruzsinszky, J. P. Perdew  Phys. Rev. Lett. 115, 036402, 2015


    Deriv               =              1
    GGA                 =           TRUE
    Meta                =           TRUE

    Exchange Hybrid     =          FALSE
    MP2 Hybrid          =          FALSE

   => Exchange Functionals <=

    1.0000   XC_MGGA_X_SCAN

   => Correlation Functionals <=

    1.0000   XC_MGGA_C_SCAN

   => LibXC Density Thresholds  <==

    XC_MGGA_C_SCAN:  1.00E-15 
    XC_MGGA_X_SCAN:  1.00E-15 

   => Molecular Quadrature <=

    Radial Scheme          =       TREUTLER
    Pruning Scheme         =           NONE
    Nuclear Scheme         =       TREUTLER

    BS radius alpha        =              1
    Pruning alpha          =              1
    Radial Points          =             75
    Spherical Points       =            302
    Total Points           =          43539
    Total Blocks           =            404
    Max Points             =            253
    Max Functions          =             98
    Weights Tolerance      =       1.00E-15

   => Loading Basis Set <=

    Name: (DEF2-TZVPPD AUX)
    Role: JKFIT
    Keyword: DF_BASIS_SCF
    atoms 1 entry AU         line  8426 file /mnt/storage/home/zw18965/.conda/envs/p4env/share/psi4/basis/def2-universal-jkfit.gbs 
    atoms 2 entry F          line   378 file /mnt/storage/home/zw18965/.conda/envs/p4env/share/psi4/basis/def2-universal-jkfit.gbs 

  ==> Integral Setup <==

  DFHelper Memory: AOs need 0.029 GiB; user supplied 83.546 GiB. Using in-core AOs.

  ==> MemDFJK: Density-Fitted J/K Matrices <==

    J tasked:                   Yes
    K tasked:                    No
    wK tasked:                   No
    OpenMP threads:              28
    Memory [MiB]:             85550
    Algorithm:                 Core
    Schwarz Cutoff:           1E-12
    Mask sparsity (%):       0.1837
    Fitting Condition:        1E-10

   => Auxiliary Basis Set <=

  Basis Set: (DEF2-TZVPPD AUX)
    Blend: DEF2-UNIVERSAL-JKFIT
    Number of shells: 76
    Number of basis functions: 324
    Number of Cartesian functions: 458
    Spherical Harmonics?: true
    Max angular momentum: 6

  Cached 100.0% of DFT collocation blocks in 0.273 [GiB].

  Minimum eigenvalue in the overlap matrix is 3.0912702842E-03.
  Reciprocal condition number of the overlap matrix is 6.5337865066E-04.
    Using symmetric orthogonalization.

  ==> Pre-Iterations <==

  SCF Guess: Superposition of Atomic Densities via on-the-fly atomic UHF (no occupation information).

   -------------------------
    Irrep   Nso     Nmo    
   -------------------------
     A1        42      42 
     A2        11      11 
     B1        23      23 
     B2        23      23 
   -------------------------
    Total      99      99
   -------------------------

  ==> Iterations <==

                           Total Energy        Delta E     RMS |[F,P]|

   @DF-RKS iter SAD:  -235.12609735498029   -2.35126e+02   0.00000e+00 
   @DF-RKS iter   1:  -235.45807123424828   -3.31974e-01   1.09751e-02 DIIS
   @DF-RKS iter   2:  -230.99509906484320    4.46297e+00   5.90581e-02 DIIS
   @DF-RKS iter   3:  -235.55904886068939   -4.56395e+00   6.22751e-03 DIIS
   @DF-RKS iter   4:  -235.57984729955120   -2.07984e-02   3.42141e-03 DIIS
   @DF-RKS iter   5:  -235.59154898969018   -1.17017e-02   1.09981e-03 DIIS
   @DF-RKS iter   6:  -235.59292503498239   -1.37605e-03   2.91548e-04 DIIS
   @DF-RKS iter   7:  -235.59298906849671   -6.40335e-05   8.80443e-05 DIIS
   @DF-RKS iter   8:  -235.59299878788013   -9.71938e-06   1.09483e-05 DIIS
   @DF-RKS iter   9:  -235.59299894738425   -1.59504e-07   1.56490e-06 DIIS
   @DF-RKS iter  10:  -235.59299894998037   -2.59612e-09   1.73565e-07 DIIS
   @DF-RKS iter  11:  -235.59299895002337   -4.30020e-11   8.51053e-09 DIIS
  Energy and wave function converged.


  ==> Post-Iterations <==

   Electrons on quadrature grid:
      Ntotal   =   28.0000039053 ; deviation = 3.905e-06 

    Orbital Energies [Eh]
    ---------------------

    Doubly Occupied:                                                      

       1A1   -24.458348     2A1    -4.147368     3A1    -2.342147  
       1B1    -2.321885     1B2    -2.321885     4A1    -1.074536  
       5A1    -0.423303     2B1    -0.366472     2B2    -0.366472  
       1A2    -0.298245     6A1    -0.298239     3B1    -0.275874  
       3B2    -0.275874     7A1    -0.270502  

    Virtual:                                                              

       8A1    -0.182523     4B2    -0.014720     4B1    -0.014720  
       9A1     0.035218    10A1     0.097220     5B1     0.155059  
       5B2     0.155059    11A1     0.167054     6B1     0.181130  
       6B2     0.181130    12A1     0.228045     2A2     0.297395  
      13A1     0.297425    14A1     0.316921     7B1     0.364582  
       7B2     0.364582    15A1     0.432383     3A2     0.538152  
      16A1     0.538226    17A1     0.657025     8B2     0.661909  
       8B1     0.661909     9B1     0.764930     9B2     0.764930  
      18A1     0.963132    10B1     1.030609    10B2     1.030609  
      19A1     1.067769    11B1     1.084788    11B2     1.084788  
       4A2     1.117782    20A1     1.117807    21A1     1.235417  
      12B1     1.296234    12B2     1.296234    22A1     1.296707  
       5A2     1.435489    23A1     1.435492    13B1     1.497699  
      13B2     1.497699    24A1     1.641681    25A1     2.234840  
       6A2     2.290139    26A1     2.290531    14B1     2.358089  
      14B2     2.358089    27A1     2.791101    15B1     3.364531  
      15B2     3.364531    28A1     3.524156    16B1     3.542653  
      16B2     3.542653    29A1     3.561604     7A2     3.561622  
      17B1     3.693749    17B2     3.693749    30A1     3.837309  
      31A1     4.040376    32A1     4.107800     8A2     4.107930  
      18B1     4.115857    18B2     4.115857    33A1     4.128662  
       9A2     4.128670    19B1     4.149106    19B2     4.149106  
      34A1     4.746858    35A1     7.038603    10A2     7.039153  
      20B1     7.046152    20B2     7.046152    21B1     7.129842  
      21B2     7.129842    36A1     7.264088    37A1     8.569968  
      11A2     8.570081    22B2     8.656511    22B1     8.656511  
      38A1     9.022261    23B1    27.455913    23B2    27.455913  
      39A1    30.470753    40A1    44.247827    41A1    57.011450  
      42A1   205.222358  

    Final Occupation by Irrep:
             A1    A2    B1    B2 
    DOCC [     7,    1,    3,    3 ]

  @DF-RKS Final Energy:  -235.59299895002337

   => Energetics <=

    Nuclear Repulsion Energy =             47.0127053345050570
    One-Electron Energy =                -471.9635912527400592
    Two-Electron Energy =                 212.6381040554176138
    DFT Exchange-Correlation Energy =     -23.2801283072059633
    Empirical Dispersion Energy =          -0.0000887800000000
    VV10 Nonlocal Energy =                  0.0000000000000000
    Total Energy =                       -235.5929989500233717

Computation Completed


Properties will be evaluated at   0.000000,   0.000000,   0.000000 [a0]

Properties computed using the SCF density matrix

  Nuclear Dipole Moment: [e a0]
     X:     0.0000      Y:     0.0000      Z:   -23.7766

  Electronic Dipole Moment: [e a0]
     X:     0.0000      Y:     0.0000      Z:    25.2584

  Dipole Moment: [e a0]
     X:     0.0000      Y:     0.0000      Z:     1.4819     Total:     1.4819

  Dipole Moment: [D]
     X:     0.0000      Y:     0.0000      Z:     3.7666     Total:     3.7666


*** tstop() called on compute286.bc4.acrc.priv at Fri Nov  5 08:50:15 2021
Module time:
	user time   =      48.71 seconds =       0.81 minutes
	system time =       2.06 seconds =       0.03 minutes
	total time  =          5 seconds =       0.08 minutes
Total time:
	user time   =      48.71 seconds =       0.81 minutes
	system time =       2.06 seconds =       0.03 minutes
	total time  =          5 seconds =       0.08 minutes

*** tstart() called on compute286.bc4.acrc.priv
*** at Fri Nov  5 08:50:16 2021


         ------------------------------------------------------------
                                   SCF GRAD                          
                          Rob Parrish, Justin Turney,                
                       Andy Simmonett, and Alex Sokolov              
         ------------------------------------------------------------

  ==> Geometry <==

    Molecular point group: c2v
    Full point group: C_inf_v

    Geometry (in Angstrom), charge = 0, multiplicity = 1:

       Center              X                  Y                   Z               Mass       
    ------------   -----------------  -----------------  -----------------  -----------------
         AU           0.000000000000     0.000000000000     0.169322932800   196.966568790000
         F            0.000000000000     0.000000000000    -1.755461067200    18.998403162730

  Nuclear repulsion =   47.012705334505057

  ==> Basis Set <==

  Basis Set: DEF2-TZVPPD
    Blend: DEF2-TZVPPD
    Number of shells: 31
    Number of basis functions: 99
    Number of Cartesian functions: 120
    Spherical Harmonics?: true
    Max angular momentum: 4

  Core potential: DEF2-TZVPPD
    Number of shells: 4
    Number of ECP primitives: 14
    Number of ECP core electrons: 60
    Max angular momentum: 3

  ==> DFJKGrad: Density-Fitted SCF Gradients <==

    Gradient:                    1
    J tasked:                  Yes
    K tasked:                   No
    wK tasked:                  No
    OpenMP threads:             28
    Integrals threads:          28
    Memory [MiB]:            85830
    Schwarz Cutoff:          1E-12
    Fitting Condition:       1E-10

   => Auxiliary Basis Set <=

  Basis Set: (DEF2-TZVPPD AUX)
    Blend: DEF2-UNIVERSAL-JKFIT
    Number of shells: 76
    Number of basis functions: 324
    Number of Cartesian functions: 458
    Spherical Harmonics?: true
    Max angular momentum: 6

  ==> DFT Potential <==

   => Composite Functional: SCAN-D3BJ <= 

    SCAN Meta-GGA XC Functional
(10.1103/PhysRevLett.115.036402)
    J. Sun, A. Ruzsinszky, J. P. Perdew  Phys. Rev. Lett. 115, 036402, 2015


    Deriv               =              1
    GGA                 =           TRUE
    Meta                =           TRUE

    Exchange Hybrid     =          FALSE
    MP2 Hybrid          =          FALSE

   => Exchange Functionals <=

    1.0000   XC_MGGA_X_SCAN

   => Correlation Functionals <=

    1.0000   XC_MGGA_C_SCAN

   => LibXC Density Thresholds  <==

    XC_MGGA_C_SCAN:  1.00E-15 
    XC_MGGA_X_SCAN:  1.00E-15 

   => Molecular Quadrature <=

    Radial Scheme          =       TREUTLER
    Pruning Scheme         =           NONE
    Nuclear Scheme         =       TREUTLER

    BS radius alpha        =              1
    Pruning alpha          =              1
    Radial Points          =             75
    Spherical Points       =            302
    Total Points           =          43539
    Total Blocks           =            404
    Max Points             =            253
    Max Functions          =             98
    Weights Tolerance      =       1.00E-15


  -Total Gradient:
     Atom            X                  Y                   Z
    ------   -----------------  -----------------  -----------------
       1       -0.000000000000     0.000000000000    -0.034462113960
       2       -0.000000000000     0.000000000000     0.068658039366


*** tstop() called on compute286.bc4.acrc.priv at Fri Nov  5 08:50:20 2021
Module time:
	user time   =      34.04 seconds =       0.57 minutes
	system time =       1.92 seconds =       0.03 minutes
	total time  =          4 seconds =       0.07 minutes
Total time:
	user time   =      83.97 seconds =       1.40 minutes
	system time =       4.03 seconds =       0.07 minutes
	total time  =         10 seconds =       0.17 minutes


  ==> Adding ECP gradient terms (computed numerically) <==

  -ECP Gradient:
     Atom            X                  Y                   Z
    ------   -----------------  -----------------  -----------------
       1        0.000000000000     0.000000000000     0.040170808034
       2        0.000000000000     0.000000000000    -0.040170808028


  -Total Gradient:
     Atom            X                  Y                   Z
    ------   -----------------  -----------------  -----------------
       1        0.000000000000     0.000000000000     0.005708694074
       2        0.000000000000     0.000000000000     0.028487231338


			-----------------------------------------
			 OPTKING 2.0: for geometry optimizations 
			  - R.A. King,  Bethel University        
			-----------------------------------------
	At level 1: Red. Int., RFO, no backsteps, dynamic trust

	Internal coordinates to be generated automatically.
	Detected frag 1 with atoms:  1 2
	---Fragment 1 Bond Connectivity---
	 1 : 2
	 2 : 1

	---Fragment 1 Geometry and Gradient---
	 AU          0.0000000000        0.0000000000        0.3199739698
	 F           0.0000000000        0.0000000000       -3.3173406409
	             0.0000000000        0.0000000000        0.0057086941
	             0.0000000000        0.0000000000        0.0284872313

	Previous optimization step data not found.  Starting new optimization.

	---Fragment 1 Intrafragment Coordinates---
	 - Coordinate -           - BOHR/RAD -       - ANG/DEG -
	 R(1,2)           =         3.637315	       1.924784

	Current energy   :      -235.5929989500

	Generating empirical Hessian (Schlegel '84) for each fragment.
	Taking RFO optimization step.
	Going to follow RFO solution 1.
	Using RFO vector 1.
	Norm of target step-size    0.02537
	Projected energy change by RFO approximation:         0.0000328326

	Back-transformation to cartesian coordinates...
	Successfully converged to displaced geometry.

	--- Internal Coordinate Step in ANG or DEG, aJ/ANG or AJ/DEG ---
	 ---------------------------------------------------------------------------
	   Coordinate                Previous        Force       Change         New 
	   ----------                --------       ------       ------       ------
	    1 R(1,2)          =      1.924784     0.093833     0.013425     1.938208
	 ---------------------------------------------------------------------------
	Successfully symmetrized geometry.

  ==> Convergence Check <==

  Measures of convergence in internal coordinates in au.
  Criteria marked as inactive (o), active & met (*), and active & unmet ( ).
  --------------------------------------------------------------------------------------------- ~
   Step     Total Energy     Delta E     MAX Force     RMS Force      MAX Disp      RMS Disp    ~
  --------------------------------------------------------------------------------------------- ~
    Convergence Criteria    1.00e-06 *    3.00e-04 *             o    1.20e-03 *             o  ~
  --------------------------------------------------------------------------------------------- ~
      1    -235.59299895   -2.36e+02      1.14e-02      1.14e-02 o    2.54e-02      2.54e-02 o  ~
  ---------------------------------------------------------------------------------------------

	Writing optimization data to binary file.
	Structure for next step:
	Cartesian Geometry (in Angstrom)
	   AU     0.0000000000   0.0000000000   0.1760351856
	    F     0.0000000000   0.0000000000  -1.7621733137
			--------------------------
			 OPTKING Finished Execution 
			--------------------------

    Structure for next step:
    Molecular point group: c2v
    Full point group: C_inf_v

    Geometry (in Angstrom), charge = 0, multiplicity = 1:

    AU           0.000000000000     0.000000000000     0.170503884471
    F            0.000000000000     0.000000000000    -1.767704622433


Scratch directory: /tmp/
gradient() will perform analytic gradient computation.

*** tstart() called on compute286.bc4.acrc.priv
*** at Fri Nov  5 08:50:50 2021

   => Loading Basis Set <=

    Name: DEF2-TZVPPD
    Role: ORBITAL
    Keyword: BASIS
    atoms 1 entry AU         line  2995 (ECP: line  4084) file /mnt/storage/home/zw18965/.conda/envs/p4env/share/psi4/basis/def2-tzvppd.gbs 
    atoms 2 entry F          line   257 file /mnt/storage/home/zw18965/.conda/envs/p4env/share/psi4/basis/def2-tzvppd.gbs 

    !!!  WARNING: ECP capability is in beta. Please check occupations closely.  !!!

   => SCAN-D3(BJ): Empirical Dispersion <=

    Grimme's -D3 (BJ-damping) Dispersion Correction
    Grimme S.; Ehrlich S.; Goerigk L. (2011), J. Comput. Chem., 32: 1456
    Parametrisation from:    J.G. Brandenburg, J. E. Bates, J. Sun, J.P. Perdew, Phys. Rev. B 94, 115144, 2016

        s6 =       1.000000
        s8 =       0.000000
        a1 =       0.538000
        a2 =       5.420000


         ---------------------------------------------------------
                                   SCF
               by Justin Turney, Rob Parrish, Andy Simmonett
                          and Daniel G. A. Smith
                              RKS Reference
                       28 Threads, 114440 MiB Core
         ---------------------------------------------------------

  ==> Geometry <==

    Molecular point group: c2v
    Full point group: C_inf_v

    Geometry (in Angstrom), charge = 0, multiplicity = 1:

       Center              X                  Y                   Z               Mass       
    ------------   -----------------  -----------------  -----------------  -----------------
         AU           0.000000000000     0.000000000000     0.170503884471   196.966568790000
         F            0.000000000000     0.000000000000    -1.767704622433    18.998403162730

  Running in c2v symmetry.

  Rotational constants: A = ************  B =      0.25898  C =      0.25898 [cm^-1]
  Rotational constants: A = ************  B =   7764.07830  C =   7764.07830 [MHz]
  Nuclear repulsion =   46.687083821086595

  Charge       = 0
  Multiplicity = 1
  Electrons    = 28
  Nalpha       = 14
  Nbeta        = 14

  ==> Algorithm <==

  SCF Algorithm Type is DF.
  DIIS enabled.
  MOM disabled.
  Fractional occupation disabled.
  Guess Type is READ.
  Energy threshold   = 1.00e-08
  Density threshold  = 1.00e-08
  Integral threshold = 1.00e-12

  ==> Primary Basis <==

  Basis Set: DEF2-TZVPPD
    Blend: DEF2-TZVPPD
    Number of shells: 31
    Number of basis functions: 99
    Number of Cartesian functions: 120
    Spherical Harmonics?: true
    Max angular momentum: 4

  Core potential: DEF2-TZVPPD
    Number of shells: 4
    Number of ECP primitives: 14
    Number of ECP core electrons: 60
    Max angular momentum: 3

  ==> DFT Potential <==

   => Composite Functional: SCAN-D3BJ <= 

    SCAN Meta-GGA XC Functional
(10.1103/PhysRevLett.115.036402)
    J. Sun, A. Ruzsinszky, J. P. Perdew  Phys. Rev. Lett. 115, 036402, 2015


    Deriv               =              1
    GGA                 =           TRUE
    Meta                =           TRUE

    Exchange Hybrid     =          FALSE
    MP2 Hybrid          =          FALSE

   => Exchange Functionals <=

    1.0000   XC_MGGA_X_SCAN

   => Correlation Functionals <=

    1.0000   XC_MGGA_C_SCAN

   => LibXC Density Thresholds  <==

    XC_MGGA_C_SCAN:  1.00E-15 
    XC_MGGA_X_SCAN:  1.00E-15 

   => Molecular Quadrature <=

    Radial Scheme          =       TREUTLER
    Pruning Scheme         =           NONE
    Nuclear Scheme         =       TREUTLER

    BS radius alpha        =              1
    Pruning alpha          =              1
    Radial Points          =             75
    Spherical Points       =            302
    Total Points           =          43539
    Total Blocks           =            405
    Max Points             =            256
    Max Functions          =             98
    Weights Tolerance      =       1.00E-15

   => Loading Basis Set <=

    Name: (DEF2-TZVPPD AUX)
    Role: JKFIT
    Keyword: DF_BASIS_SCF
    atoms 1 entry AU         line  8426 file /mnt/storage/home/zw18965/.conda/envs/p4env/share/psi4/basis/def2-universal-jkfit.gbs 
    atoms 2 entry F          line   378 file /mnt/storage/home/zw18965/.conda/envs/p4env/share/psi4/basis/def2-universal-jkfit.gbs 

   => Loading Basis Set <=

    Name: DEF2-TZVPPD
    Role: ORBITAL
    Keyword: BASIS
    atoms 1 entry AU         line  2995 (ECP: line  4084) file /mnt/storage/home/zw18965/.conda/envs/p4env/share/psi4/basis/def2-tzvppd.gbs 
    atoms 2 entry F          line   257 file /mnt/storage/home/zw18965/.conda/envs/p4env/share/psi4/basis/def2-tzvppd.gbs 

    !!!  WARNING: ECP capability is in beta. Please check occupations closely.  !!!

  Reading orbitals from file /tmp/Au01N0_F.default.22248.180.npy, no projection.

  ==> Integral Setup <==

  DFHelper Memory: AOs need 0.029 GiB; user supplied 83.546 GiB. Using in-core AOs.

  ==> MemDFJK: Density-Fitted J/K Matrices <==

    J tasked:                   Yes
    K tasked:                    No
    wK tasked:                   No
    OpenMP threads:              28
    Memory [MiB]:             85550
    Algorithm:                 Core
    Schwarz Cutoff:           1E-12
    Mask sparsity (%):       0.1837
    Fitting Condition:        1E-10

   => Auxiliary Basis Set <=

  Basis Set: (DEF2-TZVPPD AUX)
    Blend: DEF2-UNIVERSAL-JKFIT
    Number of shells: 76
    Number of basis functions: 324
    Number of Cartesian functions: 458
    Spherical Harmonics?: true
    Max angular momentum: 6

  Cached 100.0% of DFT collocation blocks in 0.273 [GiB].

  Minimum eigenvalue in the overlap matrix is 3.1833423853E-03.
  Reciprocal condition number of the overlap matrix is 6.7447771523E-04.
    Using symmetric orthogonalization.

  ==> Pre-Iterations <==

  SCF Guess: Orbitals guess was supplied from a previous computation.

   -------------------------------------------------------
    Irrep   Nso     Nmo     Nalpha   Nbeta   Ndocc  Nsocc
   -------------------------------------------------------
     A1        42      42       7       7       7       0
     A2        11      11       1       1       1       0
     B1        23      23       3       3       3       0
     B2        23      23       3       3       3       0
   -------------------------------------------------------
    Total      99      99      14      14      14       0
   -------------------------------------------------------

  ==> Iterations <==

                           Total Energy        Delta E     RMS |[F,P]|

   @DF-RKS iter   0:  -235.58915507228855   -2.35589e+02   4.24887e-04 
   @DF-RKS iter   1:  -235.59283237292823   -3.67730e-03   1.56263e-04 DIIS
   @DF-RKS iter   2:  -235.59269965383891    1.32719e-04   3.79027e-04 DIIS
   @DF-RKS iter   3:  -235.59285282270139   -1.53169e-04   8.50495e-05 DIIS
   @DF-RKS iter   4:  -235.59285930580708   -6.48311e-06   2.73884e-05 DIIS
   @DF-RKS iter   5:  -235.59286008615118   -7.80344e-07   3.01209e-06 DIIS
   @DF-RKS iter   6:  -235.59286009408498   -7.93381e-09   6.90677e-07 DIIS
   @DF-RKS iter   7:  -235.59286009456034   -4.75353e-10   2.11906e-07 DIIS
   @DF-RKS iter   8:  -235.59286009462059   -6.02540e-11   1.02115e-08 DIIS
   @DF-RKS iter   9:  -235.59286009462070   -1.13687e-13   1.24630e-09 DIIS
  Energy and wave function converged.


  ==> Post-Iterations <==

   Electrons on quadrature grid:
      Ntotal   =   28.0000055853 ; deviation = 5.585e-06 

    Orbital Energies [Eh]
    ---------------------

    Doubly Occupied:                                                      

       1A1   -24.456699     2A1    -4.146871     3A1    -2.341260  
       1B2    -2.321651     1B1    -2.321651     4A1    -1.071658  
       5A1    -0.420068     2B1    -0.363769     2B2    -0.363769  
       1A2    -0.298332     6A1    -0.298327     3B1    -0.276138  
       3B2    -0.276138     7A1    -0.270974  

    Virtual:                                                              

       8A1    -0.183708     4B1    -0.015090     4B2    -0.015090  
       9A1     0.034571    10A1     0.096909     5B1     0.155227  
       5B2     0.155227    11A1     0.166395     6B2     0.180790  
       6B1     0.180790    12A1     0.226948     2A2     0.296989  
      13A1     0.297018    14A1     0.316446     7B2     0.363930  
       7B1     0.363930    15A1     0.431766     3A2     0.538692  
      16A1     0.538764    17A1     0.658029     8B1     0.661605  
       8B2     0.661605     9B2     0.763943     9B1     0.763943  
      18A1     0.960097    10B2     1.029940    10B1     1.029940  
      19A1     1.069219    11B2     1.084426    11B1     1.084426  
       4A2     1.116535    20A1     1.116555    21A1     1.236537  
      22A1     1.293086    12B2     1.295068    12B1     1.295068  
       5A2     1.435133    23A1     1.435135    13B2     1.496218  
      13B1     1.496218    24A1     1.637485    25A1     2.232985  
       6A2     2.292119    26A1     2.292531    14B2     2.357198  
      14B1     2.357198    27A1     2.777979    15B2     3.366542  
      15B1     3.366542    28A1     3.522982    16B2     3.542776  
      16B1     3.542776    29A1     3.561263     7A2     3.561281  
      17B1     3.690692    17B2     3.690692    30A1     3.841891  
      31A1     4.043655    32A1     4.108229     8A2     4.108366  
      18B1     4.116132    18B2     4.116132    33A1     4.128680  
       9A2     4.128688    19B1     4.144912    19B2     4.144912  
      34A1     4.716199    35A1     7.040370    10A2     7.040979  
      20B2     7.048304    20B1     7.048304    21B2     7.126076  
      21B1     7.126076    36A1     7.260179    11A2     8.571787  
      37A1     8.571793    22B1     8.653519    22B2     8.653519  
      38A1     9.006829    23B1    27.452980    23B2    27.452980  
      39A1    30.358547    40A1    44.248508    41A1    57.007685  
      42A1   205.222940  

    Final Occupation by Irrep:
             A1    A2    B1    B2 
    DOCC [     7,    1,    3,    3 ]

  @DF-RKS Final Energy:  -235.59286009462070

   => Energetics <=

    Nuclear Repulsion Energy =             46.6870838210865955
    One-Electron Energy =                -471.3410178581968353
    Two-Electron Energy =                 212.3395073352940301
    DFT Exchange-Correlation Energy =     -23.2783446228045179
    Empirical Dispersion Energy =          -0.0000887700000000
    VV10 Nonlocal Energy =                  0.0000000000000000
    Total Energy =                       -235.5928600946207041

Computation Completed


Properties will be evaluated at   0.000000,   0.000000,   0.000000 [a0]

Properties computed using the SCF density matrix

  Nuclear Dipole Moment: [e a0]
     X:     0.0000      Y:     0.0000      Z:   -23.9424

  Electronic Dipole Moment: [e a0]
     X:     0.0000      Y:     0.0000      Z:    25.4469

  Dipole Moment: [e a0]
     X:     0.0000      Y:     0.0000      Z:     1.5045     Total:     1.5045

  Dipole Moment: [D]
     X:     0.0000      Y:     0.0000      Z:     3.8240     Total:     3.8240


*** tstop() called on compute286.bc4.acrc.priv at Fri Nov  5 08:50:52 2021
Module time:
	user time   =      36.80 seconds =       0.61 minutes
	system time =       1.37 seconds =       0.02 minutes
	total time  =          2 seconds =       0.03 minutes
Total time:
	user time   =     348.55 seconds =       5.81 minutes
	system time =       9.94 seconds =       0.17 minutes
	total time  =         42 seconds =       0.70 minutes

*** tstart() called on compute286.bc4.acrc.priv
*** at Fri Nov  5 08:50:52 2021


         ------------------------------------------------------------
                                   SCF GRAD                          
                          Rob Parrish, Justin Turney,                
                       Andy Simmonett, and Alex Sokolov              
         ------------------------------------------------------------

  ==> Geometry <==

    Molecular point group: c2v
    Full point group: C_inf_v

    Geometry (in Angstrom), charge = 0, multiplicity = 1:

       Center              X                  Y                   Z               Mass       
    ------------   -----------------  -----------------  -----------------  -----------------
         AU           0.000000000000     0.000000000000     0.170503884471   196.966568790000
         F            0.000000000000     0.000000000000    -1.767704622433    18.998403162730

  Nuclear repulsion =   46.687083821086595

  ==> Basis Set <==

  Basis Set: DEF2-TZVPPD
    Blend: DEF2-TZVPPD
    Number of shells: 31
    Number of basis functions: 99
    Number of Cartesian functions: 120
    Spherical Harmonics?: true
    Max angular momentum: 4

  Core potential: DEF2-TZVPPD
    Number of shells: 4
    Number of ECP primitives: 14
    Number of ECP core electrons: 60
    Max angular momentum: 3

  ==> DFJKGrad: Density-Fitted SCF Gradients <==

    Gradient:                    1
    J tasked:                  Yes
    K tasked:                   No
    wK tasked:                  No
    OpenMP threads:             28
    Integrals threads:          28
    Memory [MiB]:            85830
    Schwarz Cutoff:          1E-12
    Fitting Condition:       1E-10

   => Auxiliary Basis Set <=

  Basis Set: (DEF2-TZVPPD AUX)
    Blend: DEF2-UNIVERSAL-JKFIT
    Number of shells: 76
    Number of basis functions: 324
    Number of Cartesian functions: 458
    Spherical Harmonics?: true
    Max angular momentum: 6

  ==> DFT Potential <==

   => Composite Functional: SCAN-D3BJ <= 

    SCAN Meta-GGA XC Functional
(10.1103/PhysRevLett.115.036402)
    J. Sun, A. Ruzsinszky, J. P. Perdew  Phys. Rev. Lett. 115, 036402, 2015


    Deriv               =              1
    GGA                 =           TRUE
    Meta                =           TRUE

    Exchange Hybrid     =          FALSE
    MP2 Hybrid          =          FALSE

   => Exchange Functionals <=

    1.0000   XC_MGGA_X_SCAN

   => Correlation Functionals <=

    1.0000   XC_MGGA_C_SCAN

   => LibXC Density Thresholds  <==

    XC_MGGA_C_SCAN:  1.00E-15 
    XC_MGGA_X_SCAN:  1.00E-15 

   => Molecular Quadrature <=

    Radial Scheme          =       TREUTLER
    Pruning Scheme         =           NONE
    Nuclear Scheme         =       TREUTLER

    BS radius alpha        =              1
    Pruning alpha          =              1
    Radial Points          =             75
    Spherical Points       =            302
    Total Points           =          43539
    Total Blocks           =            405
    Max Points             =            256
    Max Functions          =             98
    Weights Tolerance      =       1.00E-15


  -Total Gradient:
     Atom            X                  Y                   Z
    ------   -----------------  -----------------  -----------------
       1       -0.000000000000    -0.000000000000    -0.026013017733
       2       -0.000000000000     0.000000000000     0.060027984587


*** tstop() called on compute286.bc4.acrc.priv at Fri Nov  5 08:50:57 2021
Module time:
	user time   =      32.68 seconds =       0.54 minutes
	system time =       1.26 seconds =       0.02 minutes
	total time  =          5 seconds =       0.08 minutes
Total time:
	user time   =     383.73 seconds =       6.40 minutes
	system time =      11.32 seconds =       0.19 minutes
	total time  =         47 seconds =       0.78 minutes


  ==> Adding ECP gradient terms (computed numerically) <==

  -ECP Gradient:
     Atom            X                  Y                   Z
    ------   -----------------  -----------------  -----------------
       1        0.000000000000    -0.000000000000     0.036370171349
       2        0.000000000000    -0.000000000000    -0.036370171355


  -Total Gradient:
     Atom            X                  Y                   Z
    ------   -----------------  -----------------  -----------------
       1       -0.000000000000    -0.000000000000     0.010357153615
       2       -0.000000000000    -0.000000000000     0.023657813232


			-----------------------------------------
			 OPTKING 2.0: for geometry optimizations 
			  - R.A. King,  Bethel University        
			-----------------------------------------
	At level 1: Red. Int., RFO, no backsteps, dynamic trust

	Previous internal coordinate definitions found.
	---Fragment 1 Geometry and Gradient---
	 AU          0.0000000000        0.0000000000        0.3222056450
	 F           0.0000000000        0.0000000000       -3.3404776071
	            -0.0000000000       -0.0000000000        0.0103571536
	            -0.0000000000       -0.0000000000        0.0236578132

	---Fragment 1 Intrafragment Coordinates---
	 - Coordinate -           - BOHR/RAD -       - ANG/DEG -
	 R(1,2)           =         3.662683	       1.938208

	Current energy   :      -235.5928600946

	Energy change for the previous step:
		Projected    :         0.0000328326
		Actual       :         0.0001388554

	Performing BFGS update.
	Previous computed or guess Hessian on step 1.
	Steps to be used in Hessian update: 1
	Taking RFO optimization step.
	Going to follow RFO solution 1.
	Using RFO vector 1.
	Norm of target step-size    0.03556
	Projected energy change by RFO approximation:         0.0003951488

	Back-transformation to cartesian coordinates...
	Successfully converged to displaced geometry.

	--- Internal Coordinate Step in ANG or DEG, aJ/ANG or AJ/DEG ---
	 ---------------------------------------------------------------------------
	   Coordinate                Previous        Force       Change         New 
	   ----------                --------       ------       ------       ------
	    1 R(1,2)          =      1.938208     0.054790     0.018815     1.957024
	 ---------------------------------------------------------------------------
	Successfully symmetrized geometry.

  ==> Convergence Check <==

  Measures of convergence in internal coordinates in au.
  Criteria marked as inactive (o), active & met (*), and active & unmet ( ).
  ---------------------------------------------------------------------------------------------
   Step     Total Energy     Delta E     MAX Force     RMS Force      MAX Disp      RMS Disp   
  ---------------------------------------------------------------------------------------------
    Convergence Criteria    1.00e-06 *    3.00e-04 *             o    1.20e-03 *             o
  ---------------------------------------------------------------------------------------------
      2    -235.59286009    1.39e-04      6.65e-03      6.65e-03 o    3.56e-02      3.56e-02 o  ~
  ---------------------------------------------------------------------------------------------

	Writing optimization data to binary file.
	Structure for next step:
	Cartesian Geometry (in Angstrom)
	   AU     0.0000000000   0.0000000000   0.1799115314
	    F     0.0000000000   0.0000000000  -1.7771122630
			--------------------------
			 OPTKING Finished Execution 
			--------------------------

    Structure for next step:
    Molecular point group: c2v
    Full point group: C_inf_v

    Geometry (in Angstrom), charge = 0, multiplicity = 1:

    AU           0.000000000000     0.000000000000     0.172159062904
    F            0.000000000000     0.000000000000    -1.784864739199


Scratch directory: /tmp/
gradient() will perform analytic gradient computation.

*** tstart() called on compute286.bc4.acrc.priv
*** at Fri Nov  5 08:51:26 2021

   => Loading Basis Set <=

    Name: DEF2-TZVPPD
    Role: ORBITAL
    Keyword: BASIS
    atoms 1 entry AU         line  2995 (ECP: line  4084) file /mnt/storage/home/zw18965/.conda/envs/p4env/share/psi4/basis/def2-tzvppd.gbs 
    atoms 2 entry F          line   257 file /mnt/storage/home/zw18965/.conda/envs/p4env/share/psi4/basis/def2-tzvppd.gbs 

    !!!  WARNING: ECP capability is in beta. Please check occupations closely.  !!!

   => SCAN-D3(BJ): Empirical Dispersion <=

    Grimme's -D3 (BJ-damping) Dispersion Correction
    Grimme S.; Ehrlich S.; Goerigk L. (2011), J. Comput. Chem., 32: 1456
    Parametrisation from:    J.G. Brandenburg, J. E. Bates, J. Sun, J.P. Perdew, Phys. Rev. B 94, 115144, 2016

        s6 =       1.000000
        s8 =       0.000000
        a1 =       0.538000
        a2 =       5.420000


         ---------------------------------------------------------
                                   SCF
               by Justin Turney, Rob Parrish, Andy Simmonett
                          and Daniel G. A. Smith
                              RKS Reference
                       28 Threads, 114440 MiB Core
         ---------------------------------------------------------

  ==> Geometry <==

    Molecular point group: c2v
    Full point group: C_inf_v

    Geometry (in Angstrom), charge = 0, multiplicity = 1:

       Center              X                  Y                   Z               Mass       
    ------------   -----------------  -----------------  -----------------  -----------------
         AU           0.000000000000     0.000000000000     0.172159062904   196.966568790000
         F            0.000000000000     0.000000000000    -1.784864739199    18.998403162730

  Running in c2v symmetry.

  Rotational constants: A = ************  B =      0.25403  C =      0.25403 [cm^-1]
  Rotational constants: A = ************  B =   7615.50455  C =   7615.50455 [MHz]
  Nuclear repulsion =   46.238223023819344

  Charge       = 0
  Multiplicity = 1
  Electrons    = 28
  Nalpha       = 14
  Nbeta        = 14

  ==> Algorithm <==

  SCF Algorithm Type is DF.
  DIIS enabled.
  MOM disabled.
  Fractional occupation disabled.
  Guess Type is READ.
  Energy threshold   = 1.00e-08
  Density threshold  = 1.00e-08
  Integral threshold = 1.00e-12

  ==> Primary Basis <==

  Basis Set: DEF2-TZVPPD
    Blend: DEF2-TZVPPD
    Number of shells: 31
    Number of basis functions: 99
    Number of Cartesian functions: 120
    Spherical Harmonics?: true
    Max angular momentum: 4

  Core potential: DEF2-TZVPPD
    Number of shells: 4
    Number of ECP primitives: 14
    Number of ECP core electrons: 60
    Max angular momentum: 3

  ==> DFT Potential <==

   => Composite Functional: SCAN-D3BJ <= 

    SCAN Meta-GGA XC Functional
(10.1103/PhysRevLett.115.036402)
    J. Sun, A. Ruzsinszky, J. P. Perdew  Phys. Rev. Lett. 115, 036402, 2015


    Deriv               =              1
    GGA                 =           TRUE
    Meta                =           TRUE

    Exchange Hybrid     =          FALSE
    MP2 Hybrid          =          FALSE

   => Exchange Functionals <=

    1.0000   XC_MGGA_X_SCAN

   => Correlation Functionals <=

    1.0000   XC_MGGA_C_SCAN

   => LibXC Density Thresholds  <==

    XC_MGGA_C_SCAN:  1.00E-15 
    XC_MGGA_X_SCAN:  1.00E-15 

   => Molecular Quadrature <=

    Radial Scheme          =       TREUTLER
    Pruning Scheme         =           NONE
    Nuclear Scheme         =       TREUTLER

    BS radius alpha        =              1
    Pruning alpha          =              1
    Radial Points          =             75
    Spherical Points       =            302
    Total Points           =          43544
    Total Blocks           =            405
    Max Points             =            256
    Max Functions          =             98
    Weights Tolerance      =       1.00E-15

   => Loading Basis Set <=

    Name: (DEF2-TZVPPD AUX)
    Role: JKFIT
    Keyword: DF_BASIS_SCF
    atoms 1 entry AU         line  8426 file /mnt/storage/home/zw18965/.conda/envs/p4env/share/psi4/basis/def2-universal-jkfit.gbs 
    atoms 2 entry F          line   378 file /mnt/storage/home/zw18965/.conda/envs/p4env/share/psi4/basis/def2-universal-jkfit.gbs 

   => Loading Basis Set <=

    Name: DEF2-TZVPPD
    Role: ORBITAL
    Keyword: BASIS
    atoms 1 entry AU         line  2995 (ECP: line  4084) file /mnt/storage/home/zw18965/.conda/envs/p4env/share/psi4/basis/def2-tzvppd.gbs 
    atoms 2 entry F          line   257 file /mnt/storage/home/zw18965/.conda/envs/p4env/share/psi4/basis/def2-tzvppd.gbs 

    !!!  WARNING: ECP capability is in beta. Please check occupations closely.  !!!

  Reading orbitals from file /tmp/Au01N0_F.default.22248.180.npy, no projection.

  ==> Integral Setup <==

  DFHelper Memory: AOs need 0.029 GiB; user supplied 83.546 GiB. Using in-core AOs.

  ==> MemDFJK: Density-Fitted J/K Matrices <==

    J tasked:                   Yes
    K tasked:                    No
    wK tasked:                   No
    OpenMP threads:              28
    Memory [MiB]:             85551
    Algorithm:                 Core
    Schwarz Cutoff:           1E-12
    Mask sparsity (%):       0.2245
    Fitting Condition:        1E-10

   => Auxiliary Basis Set <=

  Basis Set: (DEF2-TZVPPD AUX)
    Blend: DEF2-UNIVERSAL-JKFIT
    Number of shells: 76
    Number of basis functions: 324
    Number of Cartesian functions: 458
    Spherical Harmonics?: true
    Max angular momentum: 6

  Cached 100.0% of DFT collocation blocks in 0.273 [GiB].

  Minimum eigenvalue in the overlap matrix is 3.3118143288E-03.
  Reciprocal condition number of the overlap matrix is 7.0409273240E-04.
    Using symmetric orthogonalization.

  ==> Pre-Iterations <==

  SCF Guess: Orbitals guess was supplied from a previous computation.

   -------------------------------------------------------
    Irrep   Nso     Nmo     Nalpha   Nbeta   Ndocc  Nsocc
   -------------------------------------------------------
     A1        42      42       7       7       7       0
     A2        11      11       1       1       1       0
     B1        23      23       3       3       3       0
     B2        23      23       3       3       3       0
   -------------------------------------------------------
    Total      99      99      14      14      14       0
   -------------------------------------------------------

  ==> Iterations <==

                           Total Energy        Delta E     RMS |[F,P]|

   @DF-RKS iter   0:  -235.58759624500362   -2.35588e+02   5.84617e-04 
   @DF-RKS iter   1:  -235.59239697264482   -4.80073e-03   2.17687e-04 DIIS
   @DF-RKS iter   2:  -235.59211665748873    2.80315e-04   5.45858e-04 DIIS
   @DF-RKS iter   3:  -235.59243707591995   -3.20418e-04   1.20321e-04 DIIS
   @DF-RKS iter   4:  -235.59245009381766   -1.30179e-05   3.84811e-05 DIIS
   @DF-RKS iter   5:  -235.59245164995696   -1.55614e-06   4.21467e-06 DIIS
   @DF-RKS iter   6:  -235.59245166576343   -1.58065e-08   9.58093e-07 DIIS
   @DF-RKS iter   7:  -235.59245166669612   -9.32687e-10   2.87646e-07 DIIS
   @DF-RKS iter   8:  -235.59245166680867   -1.12550e-10   1.21415e-08 DIIS
   @DF-RKS iter   9:  -235.59245166680881   -1.42109e-13   1.66012e-09 DIIS
  Energy and wave function converged.


  ==> Post-Iterations <==

   Electrons on quadrature grid:
      Ntotal   =   28.0000080476 ; deviation = 8.048e-06 

    Orbital Energies [Eh]
    ---------------------

    Doubly Occupied:                                                      

       1A1   -24.454451     2A1    -4.146239     3A1    -2.340100  
       1B1    -2.321382     1B2    -2.321382     4A1    -1.067765  
       5A1    -0.415631     2B1    -0.360137     2B2    -0.360137  
       1A2    -0.298507     6A1    -0.298503     3B1    -0.276465  
       3B2    -0.276465     7A1    -0.271650  

    Virtual:                                                              

       8A1    -0.185341     4B2    -0.015564     4B1    -0.015564  
       9A1     0.033600    10A1     0.096909     5B1     0.155548  
       5B2     0.155548    11A1     0.165945     6B1     0.180486  
       6B2     0.180486    12A1     0.225564     2A2     0.296414  
      13A1     0.296443    14A1     0.315207     7B1     0.363046  
       7B2     0.363046    15A1     0.431247     3A2     0.539463  
      16A1     0.539532    17A1     0.659288     8B1     0.661102  
       8B2     0.661102     9B2     0.762820     9B1     0.762820  
      18A1     0.955820    10B2     1.029022    10B1     1.029022  
      19A1     1.071357    11B2     1.083902    11B1     1.083902  
       4A2     1.114823    20A1     1.114839    21A1     1.237517  
      22A1     1.288162    12B1     1.293347    12B2     1.293347  
       5A2     1.434700    23A1     1.434701    13B2     1.494309  
      13B1     1.494309    24A1     1.633262    25A1     2.230273  
       6A2     2.294876    26A1     2.295320    14B2     2.355627  
      14B1     2.355627    27A1     2.764445    15B1     3.369278  
      15B2     3.369278    28A1     3.521770    16B2     3.542928  
      16B1     3.542928    29A1     3.560796     7A2     3.560811  
      17B1     3.687149    17B2     3.687149    30A1     3.844347  
      31A1     4.046874    32A1     4.108803     8A2     4.108931  
      18B2     4.116469    18B1     4.116469    33A1     4.128664  
       9A2     4.128671    19B2     4.139845    19B1     4.139845  
      34A1     4.671782    35A1     7.043000    10A2     7.043677  
      20B1     7.051279    20B2     7.051279    21B2     7.121369  
      21B1     7.121369    36A1     7.254647    11A2     8.574159  
      37A1     8.574318    22B2     8.649906    22B1     8.649906  
      38A1     8.984294    23B1    27.449267    23B2    27.449267  
      39A1    30.202775    40A1    44.249259    41A1    57.003021  
      42A1   205.223655  

    Final Occupation by Irrep:
             A1    A2    B1    B2 
    DOCC [     7,    1,    3,    3 ]

  @DF-RKS Final Energy:  -235.59245166680881

   => Energetics <=

    Nuclear Repulsion Energy =             46.2382230238193443
    One-Electron Energy =                -470.4813197059319236
    Two-Electron Energy =                 211.9266509453560161
    DFT Exchange-Correlation Energy =     -23.2759171600522556
    Empirical Dispersion Energy =          -0.0000887700000000
    VV10 Nonlocal Energy =                  0.0000000000000000
    Total Energy =                       -235.5924516668088131

Computation Completed


Properties will be evaluated at   0.000000,   0.000000,   0.000000 [a0]

Properties computed using the SCF density matrix

  Nuclear Dipole Moment: [e a0]
     X:     0.0000      Y:     0.0000      Z:   -24.1748

  Electronic Dipole Moment: [e a0]
     X:     0.0000      Y:     0.0000      Z:    25.7104

  Dipole Moment: [e a0]
     X:     0.0000      Y:     0.0000      Z:     1.5355     Total:     1.5355

  Dipole Moment: [D]
     X:     0.0000      Y:     0.0000      Z:     3.9030     Total:     3.9030


*** tstop() called on compute286.bc4.acrc.priv at Fri Nov  5 08:51:28 2021
Module time:
	user time   =      36.46 seconds =       0.61 minutes
	system time =       1.35 seconds =       0.02 minutes
	total time  =          2 seconds =       0.03 minutes
Total time:
	user time   =     647.17 seconds =      10.79 minutes
	system time =      17.18 seconds =       0.29 minutes
	total time  =         78 seconds =       1.30 minutes

*** tstart() called on compute286.bc4.acrc.priv
*** at Fri Nov  5 08:51:29 2021


         ------------------------------------------------------------
                                   SCF GRAD                          
                          Rob Parrish, Justin Turney,                
                       Andy Simmonett, and Alex Sokolov              
         ------------------------------------------------------------

  ==> Geometry <==

    Molecular point group: c2v
    Full point group: C_inf_v

    Geometry (in Angstrom), charge = 0, multiplicity = 1:

       Center              X                  Y                   Z               Mass       
    ------------   -----------------  -----------------  -----------------  -----------------
         AU           0.000000000000     0.000000000000     0.172159062904   196.966568790000
         F            0.000000000000     0.000000000000    -1.784864739199    18.998403162730

  Nuclear repulsion =   46.238223023819344

  ==> Basis Set <==

  Basis Set: DEF2-TZVPPD
    Blend: DEF2-TZVPPD
    Number of shells: 31
    Number of basis functions: 99
    Number of Cartesian functions: 120
    Spherical Harmonics?: true
    Max angular momentum: 4

  Core potential: DEF2-TZVPPD
    Number of shells: 4
    Number of ECP primitives: 14
    Number of ECP core electrons: 60
    Max angular momentum: 3

  ==> DFJKGrad: Density-Fitted SCF Gradients <==

    Gradient:                    1
    J tasked:                  Yes
    K tasked:                   No
    wK tasked:                  No
    OpenMP threads:             28
    Integrals threads:          28
    Memory [MiB]:            85830
    Schwarz Cutoff:          1E-12
    Fitting Condition:       1E-10

   => Auxiliary Basis Set <=

  Basis Set: (DEF2-TZVPPD AUX)
    Blend: DEF2-UNIVERSAL-JKFIT
    Number of shells: 76
    Number of basis functions: 324
    Number of Cartesian functions: 458
    Spherical Harmonics?: true
    Max angular momentum: 6

  ==> DFT Potential <==

   => Composite Functional: SCAN-D3BJ <= 

    SCAN Meta-GGA XC Functional
(10.1103/PhysRevLett.115.036402)
    J. Sun, A. Ruzsinszky, J. P. Perdew  Phys. Rev. Lett. 115, 036402, 2015


    Deriv               =              1
    GGA                 =           TRUE
    Meta                =           TRUE

    Exchange Hybrid     =          FALSE
    MP2 Hybrid          =          FALSE

   => Exchange Functionals <=

    1.0000   XC_MGGA_X_SCAN

   => Correlation Functionals <=

    1.0000   XC_MGGA_C_SCAN

   => LibXC Density Thresholds  <==

    XC_MGGA_C_SCAN:  1.00E-15 
    XC_MGGA_X_SCAN:  1.00E-15 

   => Molecular Quadrature <=

    Radial Scheme          =       TREUTLER
    Pruning Scheme         =           NONE
    Nuclear Scheme         =       TREUTLER

    BS radius alpha        =              1
    Pruning alpha          =              1
    Radial Points          =             75
    Spherical Points       =            302
    Total Points           =          43544
    Total Blocks           =            405
    Max Points             =            256
    Max Functions          =             98
    Weights Tolerance      =       1.00E-15


  -Total Gradient:
     Atom            X                  Y                   Z
    ------   -----------------  -----------------  -----------------
       1        0.000000000000    -0.000000000000    -0.019853195041
       2        0.000000000000     0.000000000000     0.053413511480


*** tstop() called on compute286.bc4.acrc.priv at Fri Nov  5 08:51:33 2021
Module time:
	user time   =      33.17 seconds =       0.55 minutes
	system time =       1.27 seconds =       0.02 minutes
	total time  =          4 seconds =       0.07 minutes
Total time:
	user time   =     682.87 seconds =      11.38 minutes
	system time =      18.55 seconds =       0.31 minutes
	total time  =         83 seconds =       1.38 minutes


  ==> Adding ECP gradient terms (computed numerically) <==

  -ECP Gradient:
     Atom            X                  Y                   Z
    ------   -----------------  -----------------  -----------------
       1        0.000000000000     0.000000000000     0.036163304745
       2        0.000000000000     0.000000000000    -0.036163304751


  -Total Gradient:
     Atom            X                  Y                   Z
    ------   -----------------  -----------------  -----------------
       1        0.000000000000     0.000000000000     0.016310109704
       2        0.000000000000     0.000000000000     0.017250206729


			-----------------------------------------
			 OPTKING 2.0: for geometry optimizations 
			  - R.A. King,  Bethel University        
			-----------------------------------------
	At level 1: Red. Int., RFO, no backsteps, dynamic trust

	Previous internal coordinate definitions found.
	---Fragment 1 Geometry and Gradient---
	 AU          0.0000000000        0.0000000000        0.3253334789
	 F           0.0000000000        0.0000000000       -3.3729055281
	             0.0000000000        0.0000000000        0.0163101097
	             0.0000000000        0.0000000000        0.0172502067

	---Fragment 1 Intrafragment Coordinates---
	 - Coordinate -           - BOHR/RAD -       - ANG/DEG -
	 R(1,2)           =         3.698239	       1.957024

	Current energy   :      -235.5924516668

	Energy change for the previous step:
		Projected    :         0.0003951488
		Actual       :         0.0004084278

	Performing BFGS update.
	Previous computed or guess Hessian on step 1.
	Steps to be used in Hessian update: 2 1
	Taking RFO optimization step.
	Going to follow RFO solution 1.
	Using RFO vector 1.
	Norm of target step-size    0.00262
	Projected energy change by RFO approximation:         0.0000022063

	Back-transformation to cartesian coordinates...
	Successfully converged to displaced geometry.

	--- Internal Coordinate Step in ANG or DEG, aJ/ANG or AJ/DEG ---
	 ---------------------------------------------------------------------------
	   Coordinate                Previous        Force       Change         New 
	   ----------                --------       ------       ------       ------
	    1 R(1,2)          =      1.957024     0.003873     0.001388     1.958412
	 ---------------------------------------------------------------------------
	Successfully symmetrized geometry.

  ==> Convergence Check <==

  Measures of convergence in internal coordinates in au.
  Criteria marked as inactive (o), active & met (*), and active & unmet ( ).
  ---------------------------------------------------------------------------------------------
   Step     Total Energy     Delta E     MAX Force     RMS Force      MAX Disp      RMS Disp   
  ---------------------------------------------------------------------------------------------
    Convergence Criteria    1.00e-06 *    3.00e-04 *             o    1.20e-03 *             o
  ---------------------------------------------------------------------------------------------
      3    -235.59245167    4.08e-04      4.70e-04      4.70e-04 o    2.62e-03      2.62e-03 o  ~
  ---------------------------------------------------------------------------------------------

	Writing optimization data to binary file.
	Structure for next step:
	Cartesian Geometry (in Angstrom)
	   AU     0.0000000000   0.0000000000   0.1728529839
	    F     0.0000000000   0.0000000000  -1.7855586538
			--------------------------
			 OPTKING Finished Execution 
			--------------------------

    Structure for next step:
    Molecular point group: c2v
    Full point group: C_inf_v

    Geometry (in Angstrom), charge = 0, multiplicity = 1:

    AU           0.000000000000     0.000000000000     0.172281151254
    F            0.000000000000     0.000000000000    -1.786130494177


Scratch directory: /tmp/
gradient() will perform analytic gradient computation.

*** tstart() called on compute286.bc4.acrc.priv
*** at Fri Nov  5 08:52:02 2021

   => Loading Basis Set <=

    Name: DEF2-TZVPPD
    Role: ORBITAL
    Keyword: BASIS
    atoms 1 entry AU         line  2995 (ECP: line  4084) file /mnt/storage/home/zw18965/.conda/envs/p4env/share/psi4/basis/def2-tzvppd.gbs 
    atoms 2 entry F          line   257 file /mnt/storage/home/zw18965/.conda/envs/p4env/share/psi4/basis/def2-tzvppd.gbs 

    !!!  WARNING: ECP capability is in beta. Please check occupations closely.  !!!

   => SCAN-D3(BJ): Empirical Dispersion <=

    Grimme's -D3 (BJ-damping) Dispersion Correction
    Grimme S.; Ehrlich S.; Goerigk L. (2011), J. Comput. Chem., 32: 1456
    Parametrisation from:    J.G. Brandenburg, J. E. Bates, J. Sun, J.P. Perdew, Phys. Rev. B 94, 115144, 2016

        s6 =       1.000000
        s8 =       0.000000
        a1 =       0.538000
        a2 =       5.420000


         ---------------------------------------------------------
                                   SCF
               by Justin Turney, Rob Parrish, Andy Simmonett
                          and Daniel G. A. Smith
                              RKS Reference
                       28 Threads, 114440 MiB Core
         ---------------------------------------------------------

  ==> Geometry <==

    Molecular point group: c2v
    Full point group: C_inf_v

    Geometry (in Angstrom), charge = 0, multiplicity = 1:

       Center              X                  Y                   Z               Mass       
    ------------   -----------------  -----------------  -----------------  -----------------
         AU           0.000000000000     0.000000000000     0.172281151254   196.966568790000
         F            0.000000000000     0.000000000000    -1.786130494177    18.998403162730

  Running in c2v symmetry.

  Rotational constants: A = ************  B =      0.25367  C =      0.25367 [cm^-1]
  Rotational constants: A = ************  B =   7604.71481  C =   7604.71481 [MHz]
  Nuclear repulsion =   46.205455954920112

  Charge       = 0
  Multiplicity = 1
  Electrons    = 28
  Nalpha       = 14
  Nbeta        = 14

  ==> Algorithm <==

  SCF Algorithm Type is DF.
  DIIS enabled.
  MOM disabled.
  Fractional occupation disabled.
  Guess Type is READ.
  Energy threshold   = 1.00e-08
  Density threshold  = 1.00e-08
  Integral threshold = 1.00e-12

  ==> Primary Basis <==

  Basis Set: DEF2-TZVPPD
    Blend: DEF2-TZVPPD
    Number of shells: 31
    Number of basis functions: 99
    Number of Cartesian functions: 120
    Spherical Harmonics?: true
    Max angular momentum: 4

  Core potential: DEF2-TZVPPD
    Number of shells: 4
    Number of ECP primitives: 14
    Number of ECP core electrons: 60
    Max angular momentum: 3

  ==> DFT Potential <==

   => Composite Functional: SCAN-D3BJ <= 

    SCAN Meta-GGA XC Functional
(10.1103/PhysRevLett.115.036402)
    J. Sun, A. Ruzsinszky, J. P. Perdew  Phys. Rev. Lett. 115, 036402, 2015


    Deriv               =              1
    GGA                 =           TRUE
    Meta                =           TRUE

    Exchange Hybrid     =          FALSE
    MP2 Hybrid          =          FALSE

   => Exchange Functionals <=

    1.0000   XC_MGGA_X_SCAN

   => Correlation Functionals <=

    1.0000   XC_MGGA_C_SCAN

   => LibXC Density Thresholds  <==

    XC_MGGA_C_SCAN:  1.00E-15 
    XC_MGGA_X_SCAN:  1.00E-15 

   => Molecular Quadrature <=

    Radial Scheme          =       TREUTLER
    Pruning Scheme         =           NONE
    Nuclear Scheme         =       TREUTLER

    BS radius alpha        =              1
    Pruning alpha          =              1
    Radial Points          =             75
    Spherical Points       =            302
    Total Points           =          43540
    Total Blocks           =            405
    Max Points             =            256
    Max Functions          =             98
    Weights Tolerance      =       1.00E-15

   => Loading Basis Set <=

    Name: (DEF2-TZVPPD AUX)
    Role: JKFIT
    Keyword: DF_BASIS_SCF
    atoms 1 entry AU         line  8426 file /mnt/storage/home/zw18965/.conda/envs/p4env/share/psi4/basis/def2-universal-jkfit.gbs 
    atoms 2 entry F          line   378 file /mnt/storage/home/zw18965/.conda/envs/p4env/share/psi4/basis/def2-universal-jkfit.gbs 

   => Loading Basis Set <=

    Name: DEF2-TZVPPD
    Role: ORBITAL
    Keyword: BASIS
    atoms 1 entry AU         line  2995 (ECP: line  4084) file /mnt/storage/home/zw18965/.conda/envs/p4env/share/psi4/basis/def2-tzvppd.gbs 
    atoms 2 entry F          line   257 file /mnt/storage/home/zw18965/.conda/envs/p4env/share/psi4/basis/def2-tzvppd.gbs 

    !!!  WARNING: ECP capability is in beta. Please check occupations closely.  !!!

  Reading orbitals from file /tmp/Au01N0_F.default.22248.180.npy, no projection.

  ==> Integral Setup <==

  DFHelper Memory: AOs need 0.029 GiB; user supplied 83.546 GiB. Using in-core AOs.

  ==> MemDFJK: Density-Fitted J/K Matrices <==

    J tasked:                   Yes
    K tasked:                    No
    wK tasked:                   No
    OpenMP threads:              28
    Memory [MiB]:             85551
    Algorithm:                 Core
    Schwarz Cutoff:           1E-12
    Mask sparsity (%):       0.2245
    Fitting Condition:        1E-10

   => Auxiliary Basis Set <=

  Basis Set: (DEF2-TZVPPD AUX)
    Blend: DEF2-UNIVERSAL-JKFIT
    Number of shells: 76
    Number of basis functions: 324
    Number of Cartesian functions: 458
    Spherical Harmonics?: true
    Max angular momentum: 6

  Cached 100.0% of DFT collocation blocks in 0.273 [GiB].

  Minimum eigenvalue in the overlap matrix is 3.3212539480E-03.
  Reciprocal condition number of the overlap matrix is 7.0627700608E-04.
    Using symmetric orthogonalization.

  ==> Pre-Iterations <==

  SCF Guess: Orbitals guess was supplied from a previous computation.

   -------------------------------------------------------
    Irrep   Nso     Nmo     Nalpha   Nbeta   Ndocc  Nsocc
   -------------------------------------------------------
     A1        42      42       7       7       7       0
     A2        11      11       1       1       1       0
     B1        23      23       3       3       3       0
     B2        23      23       3       3       3       0
   -------------------------------------------------------
    Total      99      99      14      14      14       0
   -------------------------------------------------------

  ==> Iterations <==

                           Total Energy        Delta E     RMS |[F,P]|

   @DF-RKS iter   0:  -235.59206479597844   -2.35592e+02   4.36214e-05 
   @DF-RKS iter   1:  -235.59241293174750   -3.48136e-04   1.56431e-05 DIIS
   @DF-RKS iter   2:  -235.59241152840531    1.40334e-06   3.87153e-05 DIIS
   @DF-RKS iter   3:  -235.59241313819533   -1.60979e-06   8.67992e-06 DIIS
   @DF-RKS iter   4:  -235.59241320581845   -6.76231e-08   2.78201e-06 DIIS
   @DF-RKS iter   5:  -235.59241321398946   -8.17101e-09   3.03857e-07 DIIS
   @DF-RKS iter   6:  -235.59241321407157   -8.21103e-11   6.55919e-08 DIIS
   @DF-RKS iter   7:  -235.59241321407569   -4.12115e-12   2.25879e-08 DIIS
   @DF-RKS iter   8:  -235.59241321407654   -8.52651e-13   1.37201e-09 DIIS
  Energy and wave function converged.


  ==> Post-Iterations <==

   Electrons on quadrature grid:
      Ntotal   =   28.0000082376 ; deviation = 8.238e-06 

    Orbital Energies [Eh]
    ---------------------

    Doubly Occupied:                                                      

       1A1   -24.454288     2A1    -4.146195     3A1    -2.340019  
       1B2    -2.321364     1B1    -2.321364     4A1    -1.067485  
       5A1    -0.415309     2B2    -0.359876     2B1    -0.359876  
       1A2    -0.298522     6A1    -0.298517     3B2    -0.276487  
       3B1    -0.276487     7A1    -0.271700  

    Virtual:                                                              

       8A1    -0.185460     4B1    -0.015599     4B2    -0.015599  
       9A1     0.033528    10A1     0.096910     5B2     0.155571  
       5B1     0.155571    11A1     0.165911     6B2     0.180465  
       6B1     0.180465    12A1     0.225463     2A2     0.296371  
      13A1     0.296400    14A1     0.315117     7B1     0.362981  
       7B2     0.362981    15A1     0.431210     3A2     0.539521  
      16A1     0.539589    17A1     0.659380     8B1     0.661060  
       8B2     0.661060     9B2     0.762746     9B1     0.762746  
      18A1     0.955506    10B2     1.028954    10B1     1.028954  
      19A1     1.071512    11B1     1.083862    11B2     1.083862  
       4A2     1.114696    20A1     1.114713    21A1     1.237571  
      22A1     1.287822    12B1     1.293212    12B2     1.293212  
       5A2     1.434667    23A1     1.434669    13B1     1.494172  
      13B2     1.494172    24A1     1.632990    25A1     2.230085  
       6A2     2.295077    26A1     2.295524    14B2     2.355552  
      14B1     2.355552    27A1     2.763280    15B2     3.369476  
      15B1     3.369476    28A1     3.521743    16B2     3.542937  
      16B1     3.542937    29A1     3.560760     7A2     3.560776  
      17B1     3.686860    17B2     3.686860    30A1     3.844632  
      31A1     4.047158    32A1     4.108842     8A2     4.108970  
      18B1     4.116491    18B2     4.116491    33A1     4.128661  
       9A2     4.128667    19B2     4.139496    19B1     4.139496  
      34A1     4.668627    35A1     7.043197    10A2     7.043879  
      20B2     7.051495    20B1     7.051495    21B2     7.121045  
      21B1     7.121045    36A1     7.254253    11A2     8.574332  
      37A1     8.574503    22B1     8.649655    22B2     8.649655  
      38A1     8.982704    23B2    27.449009    23B1    27.449009  
      39A1    30.191409    40A1    44.249303    41A1    57.002704  
      42A1   205.223703  

    Final Occupation by Irrep:
             A1    A2    B1    B2 
    DOCC [     7,    1,    3,    3 ]

  @DF-RKS Final Energy:  -235.59241321407654

   => Energetics <=

    Nuclear Repulsion Energy =             46.2054559549201116
    One-Electron Energy =                -470.4184864789029348
    Two-Electron Energy =                 211.8964496969452398
    DFT Exchange-Correlation Energy =     -23.2757436170389767
    Empirical Dispersion Energy =          -0.0000887700000000
    VV10 Nonlocal Energy =                  0.0000000000000000
    Total Energy =                       -235.5924132140765437

Computation Completed


Properties will be evaluated at   0.000000,   0.000000,   0.000000 [a0]

Properties computed using the SCF density matrix

  Nuclear Dipole Moment: [e a0]
     X:     0.0000      Y:     0.0000      Z:   -24.1920

  Electronic Dipole Moment: [e a0]
     X:     0.0000      Y:     0.0000      Z:    25.7298

  Dipole Moment: [e a0]
     X:     0.0000      Y:     0.0000      Z:     1.5378     Total:     1.5378

  Dipole Moment: [D]
     X:     0.0000      Y:     0.0000      Z:     3.9087     Total:     3.9087


*** tstop() called on compute286.bc4.acrc.priv at Fri Nov  5 08:52:05 2021
Module time:
	user time   =      35.72 seconds =       0.60 minutes
	system time =       1.26 seconds =       0.02 minutes
	total time  =          3 seconds =       0.05 minutes
Total time:
	user time   =     945.71 seconds =      15.76 minutes
	system time =      24.33 seconds =       0.41 minutes
	total time  =        115 seconds =       1.92 minutes

*** tstart() called on compute286.bc4.acrc.priv
*** at Fri Nov  5 08:52:05 2021


         ------------------------------------------------------------
                                   SCF GRAD                          
                          Rob Parrish, Justin Turney,                
                       Andy Simmonett, and Alex Sokolov              
         ------------------------------------------------------------

  ==> Geometry <==

    Molecular point group: c2v
    Full point group: C_inf_v

    Geometry (in Angstrom), charge = 0, multiplicity = 1:

       Center              X                  Y                   Z               Mass       
    ------------   -----------------  -----------------  -----------------  -----------------
         AU           0.000000000000     0.000000000000     0.172281151254   196.966568790000
         F            0.000000000000     0.000000000000    -1.786130494177    18.998403162730

  Nuclear repulsion =   46.205455954920112

  ==> Basis Set <==

  Basis Set: DEF2-TZVPPD
    Blend: DEF2-TZVPPD
    Number of shells: 31
    Number of basis functions: 99
    Number of Cartesian functions: 120
    Spherical Harmonics?: true
    Max angular momentum: 4

  Core potential: DEF2-TZVPPD
    Number of shells: 4
    Number of ECP primitives: 14
    Number of ECP core electrons: 60
    Max angular momentum: 3

  ==> DFJKGrad: Density-Fitted SCF Gradients <==

    Gradient:                    1
    J tasked:                  Yes
    K tasked:                   No
    wK tasked:                  No
    OpenMP threads:             28
    Integrals threads:          28
    Memory [MiB]:            85830
    Schwarz Cutoff:          1E-12
    Fitting Condition:       1E-10

   => Auxiliary Basis Set <=

  Basis Set: (DEF2-TZVPPD AUX)
    Blend: DEF2-UNIVERSAL-JKFIT
    Number of shells: 76
    Number of basis functions: 324
    Number of Cartesian functions: 458
    Spherical Harmonics?: true
    Max angular momentum: 6

  ==> DFT Potential <==

   => Composite Functional: SCAN-D3BJ <= 

    SCAN Meta-GGA XC Functional
(10.1103/PhysRevLett.115.036402)
    J. Sun, A. Ruzsinszky, J. P. Perdew  Phys. Rev. Lett. 115, 036402, 2015


    Deriv               =              1
    GGA                 =           TRUE
    Meta                =           TRUE

    Exchange Hybrid     =          FALSE
    MP2 Hybrid          =          FALSE

   => Exchange Functionals <=

    1.0000   XC_MGGA_X_SCAN

   => Correlation Functionals <=

    1.0000   XC_MGGA_C_SCAN

   => LibXC Density Thresholds  <==

    XC_MGGA_C_SCAN:  1.00E-15 
    XC_MGGA_X_SCAN:  1.00E-15 

   => Molecular Quadrature <=

    Radial Scheme          =       TREUTLER
    Pruning Scheme         =           NONE
    Nuclear Scheme         =       TREUTLER

    BS radius alpha        =              1
    Pruning alpha          =              1
    Radial Points          =             75
    Spherical Points       =            302
    Total Points           =          43540
    Total Blocks           =            405
    Max Points             =            256
    Max Functions          =             98
    Weights Tolerance      =       1.00E-15


  -Total Gradient:
     Atom            X                  Y                   Z
    ------   -----------------  -----------------  -----------------
       1        0.000000000000     0.000000000000    -0.019424767372
       2       -0.000000000000     0.000000000000     0.052943672060


*** tstop() called on compute286.bc4.acrc.priv at Fri Nov  5 08:52:09 2021
Module time:
	user time   =      32.80 seconds =       0.55 minutes
	system time =       1.19 seconds =       0.02 minutes
	total time  =          4 seconds =       0.07 minutes
Total time:
	user time   =     981.01 seconds =      16.35 minutes
	system time =      25.64 seconds =       0.43 minutes
	total time  =        119 seconds =       1.98 minutes


  ==> Adding ECP gradient terms (computed numerically) <==

  -ECP Gradient:
     Atom            X                  Y                   Z
    ------   -----------------  -----------------  -----------------
       1        0.000000000000     0.000000000000     0.036146875744
       2        0.000000000000     0.000000000000    -0.036146875741


  -Total Gradient:
     Atom            X                  Y                   Z
    ------   -----------------  -----------------  -----------------
       1        0.000000000000     0.000000000000     0.016722108373
       2        0.000000000000     0.000000000000     0.016796796319


			-----------------------------------------
			 OPTKING 2.0: for geometry optimizations 
			  - R.A. King,  Bethel University        
			-----------------------------------------
	At level 1: Red. Int., RFO, no backsteps, dynamic trust

	Previous internal coordinate definitions found.
	---Fragment 1 Geometry and Gradient---
	 AU          0.0000000000        0.0000000000        0.3255641924
	 F           0.0000000000        0.0000000000       -3.3752974583
	             0.0000000000        0.0000000000        0.0167221084
	             0.0000000000        0.0000000000        0.0167967963

	---Fragment 1 Intrafragment Coordinates---
	 - Coordinate -           - BOHR/RAD -       - ANG/DEG -
	 R(1,2)           =         3.700862	       1.958412

	Current energy   :      -235.5924132141

	Energy change for the previous step:
		Projected    :         0.0000022063
		Actual       :         0.0000384527

	Performing BFGS update.
	Previous computed or guess Hessian on step 1.
	Steps to be used in Hessian update: 3 2
	Taking RFO optimization step.
	Going to follow RFO solution 1.
	Using RFO vector 1.
	Norm of target step-size    0.00022
	Projected energy change by RFO approximation:         0.0000000152

	Back-transformation to cartesian coordinates...
	Successfully converged to displaced geometry.

	--- Internal Coordinate Step in ANG or DEG, aJ/ANG or AJ/DEG ---
	 ---------------------------------------------------------------------------
	   Coordinate                Previous        Force       Change         New 
	   ----------                --------       ------       ------       ------
	    1 R(1,2)          =      1.958412     0.000308     0.000114     1.958526
	 ---------------------------------------------------------------------------
	Successfully symmetrized geometry.

  ==> Convergence Check <==

  Measures of convergence in internal coordinates in au.
  Criteria marked as inactive (o), active & met (*), and active & unmet ( ).
  ---------------------------------------------------------------------------------------------
   Step     Total Energy     Delta E     MAX Force     RMS Force      MAX Disp      RMS Disp   
  ---------------------------------------------------------------------------------------------
    Convergence Criteria    1.00e-06 *    3.00e-04 *             o    1.20e-03 *             o
  ---------------------------------------------------------------------------------------------
      4    -235.59241321    3.85e-05      3.73e-05 *    3.73e-05 o    2.16e-04 *    2.16e-04 o  ~
  ---------------------------------------------------------------------------------------------


  **** Optimization is complete! (in 4 steps) ****

  ==> Optimization Summary <==

  Measures of convergence in internal coordinates in au.
  --------------------------------------------------------------------------------------------------------------- ~
   Step         Total Energy             Delta E       MAX Force       RMS Force        MAX Disp        RMS Disp  ~
  --------------------------------------------------------------------------------------------------------------- ~
      1    -235.592998950023   -235.592998950023      0.01138927      0.01138927      0.02536864      0.02536864  ~
      2    -235.592860094621      0.000138855403      0.00665033      0.00665033      0.03555575      0.03555575  ~
      3    -235.592451666809      0.000408427812      0.00047005      0.00047005      0.00262264      0.00262264  ~
      4    -235.592413214077      0.000038452732      0.00003734      0.00003734      0.00021560      0.00021560  ~
  --------------------------------------------------------------------------------------------------------------- ~

	Writing optimization data to binary file.
	Final energy is   -235.5924132140765
	Final (previous) structure:
	Cartesian Geometry (in Angstrom)
	   AU     0.0000000000   0.0000000000   0.1722811506
	    F     0.0000000000   0.0000000000  -1.7861304872
	Saving final (previous) structure.
	Cleaning optimization helper files.
			--------------------------
			 OPTKING Finished Execution 
[...]

  ==> Primary Basis <==

  Basis Set: DEF2-TZVPPD
    Blend: DEF2-TZVPPD
    Number of shells: 31
    Number of basis functions: 99
    Number of Cartesian functions: 120
    Spherical Harmonics?: true
    Max angular momentum: 4

  Core potential: DEF2-TZVPPD
    Number of shells: 4
    Number of ECP primitives: 14
    Number of ECP core electrons: 60
    Max angular momentum: 3

  ==> DFT Potential <==

   => Composite Functional: SCAN-D3BJ <= 

    SCAN Meta-GGA XC Functional
(10.1103/PhysRevLett.115.036402)
    J. Sun, A. Ruzsinszky, J. P. Perdew  Phys. Rev. Lett. 115, 036402, 2015


    Deriv               =              1
    GGA                 =           TRUE
    Meta                =           TRUE

    Exchange Hybrid     =          FALSE
    MP2 Hybrid          =          FALSE

   => Exchange Functionals <=

    1.0000   XC_MGGA_X_SCAN

   => Correlation Functionals <=

    1.0000   XC_MGGA_C_SCAN

   => LibXC Density Thresholds  <==

    XC_MGGA_C_SCAN:  1.00E-15 
    XC_MGGA_X_SCAN:  1.00E-15 

   => Molecular Quadrature <=

    Radial Scheme          =       TREUTLER
    Pruning Scheme         =           NONE
    Nuclear Scheme         =       TREUTLER

    BS radius alpha        =              1
    Pruning alpha          =              1
    Radial Points          =             75
    Spherical Points       =            302
    Total Points           =          43544
    Total Blocks           =            405
    Max Points             =            256
    Max Functions          =             98
    Weights Tolerance      =       1.00E-15

   => Loading Basis Set <=

    Name: (DEF2-TZVPPD AUX)
    Role: JKFIT
    Keyword: DF_BASIS_SCF
    atoms 1 entry AU         line  8426 file /mnt/storage/home/zw18965/.conda/envs/p4env/share/psi4/basis/def2-universal-jkfit.gbs 
    atoms 2 entry F          line   378 file /mnt/storage/home/zw18965/.conda/envs/p4env/share/psi4/basis/def2-universal-jkfit.gbs 

  ==> Integral Setup <==

  DFHelper Memory: AOs need 0.029 GiB; user supplied 83.546 GiB. Using in-core AOs.

  ==> MemDFJK: Density-Fitted J/K Matrices <==

    J tasked:                   Yes
    K tasked:                    No
    wK tasked:                   No
    OpenMP threads:              28
    Memory [MiB]:             85551
    Algorithm:                 Core
    Schwarz Cutoff:           1E-12
    Mask sparsity (%):       0.2245
    Fitting Condition:        1E-10

   => Auxiliary Basis Set <=

  Basis Set: (DEF2-TZVPPD AUX)
    Blend: DEF2-UNIVERSAL-JKFIT
    Number of shells: 76
    Number of basis functions: 324
    Number of Cartesian functions: 458
    Spherical Harmonics?: true
    Max angular momentum: 6

  Cached 100.0% of DFT collocation blocks in 0.273 [GiB].

  Minimum eigenvalue in the overlap matrix is 3.3255753545E-03.
  Reciprocal condition number of the overlap matrix is 7.0727734038E-04.
    Using symmetric orthogonalization.

  ==> Pre-Iterations <==

  SCF Guess: Superposition of Atomic Densities via on-the-fly atomic UHF (no occupation information).

   -------------------------
    Irrep   Nso     Nmo    
   -------------------------
     A1        42      42 
     A2        11      11 
     B1        23      23 
     B2        23      23 
   -------------------------
    Total      99      99
   -------------------------

  ==> Iterations <==

                           Total Energy        Delta E     RMS |[F,P]|

   @DF-RKS iter SAD:  -235.09708986323011   -2.35097e+02   0.00000e+00 
   @DF-RKS iter   1:  -235.44909524376806   -3.52005e-01   1.12372e-02 DIIS
   @DF-RKS iter   2:  -230.08667450893046    5.36242e+00   6.21168e-02 DIIS
   @DF-RKS iter   3:  -235.54969929517389   -5.46302e+00   6.95673e-03 DIIS
   @DF-RKS iter   4:  -235.57731691137752   -2.76176e-02   3.63305e-03 DIIS
   @DF-RKS iter   5:  -235.59043610696406   -1.31192e-02   1.27602e-03 DIIS
   @DF-RKS iter   6:  -235.59229922606826   -1.86312e-03   3.35561e-04 DIIS
   @DF-RKS iter   7:  -235.59237869068471   -7.94646e-05   1.12926e-04 DIIS
   @DF-RKS iter   8:  -235.59239497134419   -1.62807e-05   1.39710e-05 DIIS
   @DF-RKS iter   9:  -235.59239522993920   -2.58595e-07   1.88684e-06 DIIS
   @DF-RKS iter  10:  -235.59239523383474   -3.89554e-09   1.94331e-07 DIIS
   @DF-RKS iter  11:  -235.59239523389061   -5.58771e-11   7.92061e-09 DIIS
  Energy and wave function converged.


  ==> Post-Iterations <==

   Electrons on quadrature grid:
      Ntotal   =   28.0000083251 ; deviation = 8.325e-06 

    Orbital Energies [Eh]
    ---------------------

    Doubly Occupied:                                                      

       1A1   -24.454214     2A1    -4.146175     3A1    -2.339982  
       1B2    -2.321356     1B1    -2.321356     4A1    -1.067357  
       5A1    -0.415162     2B2    -0.359757     2B1    -0.359757  
       1A2    -0.298529     6A1    -0.298524     3B2    -0.276498  
       3B1    -0.276498     7A1    -0.271723  

    Virtual:                                                              

       8A1    -0.185514     4B2    -0.015615     4B1    -0.015615  
       9A1     0.033495    10A1     0.096911     5B2     0.155582  
       5B1     0.155582    11A1     0.165896     6B2     0.180454  
       6B1     0.180454    12A1     0.225417     2A2     0.296351  
      13A1     0.296380    14A1     0.315076     7B2     0.362951  
       7B1     0.362951    15A1     0.431193     3A2     0.539547  
      16A1     0.539615    17A1     0.659421     8B2     0.661041  
       8B1     0.661041     9B2     0.762713     9B1     0.762713  
      18A1     0.955362    10B2     1.028923    10B1     1.028923  
      19A1     1.071583    11B2     1.083843    11B1     1.083843  
       4A2     1.114638    20A1     1.114655    21A1     1.237594  
      22A1     1.287667    12B1     1.293150    12B2     1.293150  
       5A2     1.434652    23A1     1.434654    13B2     1.494109  
      13B1     1.494109    24A1     1.632867    25A1     2.229999  
       6A2     2.295169    26A1     2.295617    14B2     2.355518  
      14B1     2.355518    27A1     2.762746    15B2     3.369566  
      15B1     3.369566    28A1     3.521733    16B2     3.542942  
      16B1     3.542942    29A1     3.560744     7A2     3.560759  
      17B2     3.686727    17B1     3.686727    30A1     3.844762  
      31A1     4.047289    32A1     4.108860     8A2     4.108988  
      18B2     4.116501    18B1     4.116501    33A1     4.128659  
       9A2     4.128665    19B2     4.139338    19B1     4.139338  
      34A1     4.667184    35A1     7.043287    10A2     7.043972  
      20B2     7.051594    20B1     7.051594    21B2     7.120898  
      21B1     7.120898    36A1     7.254073    11A2     8.574411  
      37A1     8.574587    22B2     8.649541    22B1     8.649541  
      38A1     8.981976    23B1    27.448891    23B2    27.448891  
      39A1    30.186209    40A1    44.249323    41A1    57.002560  
      42A1   205.223725  

    Final Occupation by Irrep:
             A1    A2    B1    B2 
    DOCC [     7,    1,    3,    3 ]

  @DF-RKS Final Energy:  -235.59239523389061

   => Energetics <=

    Nuclear Repulsion Energy =             46.1904640669282713
    One-Electron Energy =                -470.3897338222039934
    Two-Electron Energy =                 211.8826276044493397
    DFT Exchange-Correlation Energy =     -23.2756643130642153
    Empirical Dispersion Energy =          -0.0000887700000000
    VV10 Nonlocal Energy =                  0.0000000000000000
    Total Energy =                       -235.5923952338906133

Computation Completed


Properties will be evaluated at   0.000000,   0.000000,   0.000000 [a0]

Properties computed using the SCF density matrix

  Nuclear Dipole Moment: [e a0]
     X:     0.0000      Y:     0.0000      Z:   -24.1998

  Electronic Dipole Moment: [e a0]
     X:     0.0000      Y:     0.0000      Z:    25.7387

  Dipole Moment: [e a0]
     X:     0.0000      Y:     0.0000      Z:     1.5388     Total:     1.5388

  Dipole Moment: [D]
     X:     0.0000      Y:     0.0000      Z:     3.9114     Total:     3.9114


*** tstop() called on compute286.bc4.acrc.priv at Fri Nov  5 08:54:41 2021
Module time:
	user time   =      48.97 seconds =       0.82 minutes
	system time =       1.70 seconds =       0.03 minutes
	total time  =          4 seconds =       0.07 minutes
Total time:
	user time   =    2205.00 seconds =      36.75 minutes
	system time =      57.53 seconds =       0.96 minutes
	total time  =        271 seconds =       4.52 minutes

*** tstart() called on compute286.bc4.acrc.priv
*** at Fri Nov  5 08:54:41 2021


         ------------------------------------------------------------
                                   SCF GRAD                          
                          Rob Parrish, Justin Turney,                
                       Andy Simmonett, and Alex Sokolov              
         ------------------------------------------------------------

  ==> Geometry <==

    Molecular point group: c2v
    Full point group: C_inf_v

    Geometry (in Angstrom), charge = 0, multiplicity = 1:

       Center              X                  Y                   Z               Mass       
    ------------   -----------------  -----------------  -----------------  -----------------
         AU           0.000000000000     0.000000000000     0.172337067984   196.966568790000
         F            0.000000000000     0.000000000000    -1.786710212716    18.998403162730

  Nuclear repulsion =   46.190464066928271

  ==> Basis Set <==

  Basis Set: DEF2-TZVPPD
    Blend: DEF2-TZVPPD
    Number of shells: 31
    Number of basis functions: 99
    Number of Cartesian functions: 120
    Spherical Harmonics?: true
    Max angular momentum: 4

  Core potential: DEF2-TZVPPD
    Number of shells: 4
    Number of ECP primitives: 14
    Number of ECP core electrons: 60
    Max angular momentum: 3

  ==> DFJKGrad: Density-Fitted SCF Gradients <==

    Gradient:                    1
    J tasked:                  Yes
    K tasked:                   No
    wK tasked:                  No
    OpenMP threads:             28
    Integrals threads:          28
    Memory [MiB]:            85830
    Schwarz Cutoff:          1E-12
    Fitting Condition:       1E-10

   => Auxiliary Basis Set <=

  Basis Set: (DEF2-TZVPPD AUX)
    Blend: DEF2-UNIVERSAL-JKFIT
    Number of shells: 76
    Number of basis functions: 324
    Number of Cartesian functions: 458
    Spherical Harmonics?: true
    Max angular momentum: 6

  ==> DFT Potential <==

   => Composite Functional: SCAN-D3BJ <= 

    SCAN Meta-GGA XC Functional
(10.1103/PhysRevLett.115.036402)
    J. Sun, A. Ruzsinszky, J. P. Perdew  Phys. Rev. Lett. 115, 036402, 2015


    Deriv               =              1
    GGA                 =           TRUE
    Meta                =           TRUE

    Exchange Hybrid     =          FALSE
    MP2 Hybrid          =          FALSE

   => Exchange Functionals <=

    1.0000   XC_MGGA_X_SCAN

   => Correlation Functionals <=

    1.0000   XC_MGGA_C_SCAN

   => LibXC Density Thresholds  <==

    XC_MGGA_C_SCAN:  1.00E-15 
    XC_MGGA_X_SCAN:  1.00E-15 

   => Molecular Quadrature <=

    Radial Scheme          =       TREUTLER
    Pruning Scheme         =           NONE
    Nuclear Scheme         =       TREUTLER

    BS radius alpha        =              1
    Pruning alpha          =              1
    Radial Points          =             75
    Spherical Points       =            302
    Total Points           =          43544
    Total Blocks           =            405
    Max Points             =            256
    Max Functions          =             98
    Weights Tolerance      =       1.00E-15


  -Total Gradient:
     Atom            X                  Y                   Z
    ------   -----------------  -----------------  -----------------
       1        0.000000000000    -0.000000000000    -0.019229607704
       2        0.000000000000     0.000000000000     0.052729374986


*** tstop() called on compute286.bc4.acrc.priv at Fri Nov  5 08:54:46 2021
Module time:
	user time   =      33.22 seconds =       0.55 minutes
	system time =       2.05 seconds =       0.03 minutes
	total time  =          5 seconds =       0.08 minutes
Total time:
	user time   =    2240.95 seconds =      37.35 minutes
	system time =      59.73 seconds =       1.00 minutes
	total time  =        276 seconds =       4.60 minutes


  ==> Adding ECP gradient terms (computed numerically) <==

  -ECP Gradient:
     Atom            X                  Y                   Z
    ------   -----------------  -----------------  -----------------
       1        0.000000000000    -0.000000000000     0.036139267291
       2        0.000000000000    -0.000000000000    -0.036139267291


  -Total Gradient:
     Atom            X                  Y                   Z
    ------   -----------------  -----------------  -----------------
       1        0.000000000000    -0.000000000000     0.016909659588
       2        0.000000000000    -0.000000000000     0.016590107695


         ----------------------------------------------------------
                                   FINDIF
                     R. A. King and Jonathon Misiewicz
         ---------------------------------------------------------

  Computing second-derivative from gradients using projected, 
  symmetry-adapted, cartesian coordinates.

  3 gradients passed in, including the reference geometry.
  Generating complete list of displacements from unique ones.


-------------------------------------------------------------


  ==> Harmonic Vibrational Analysis <==

  non-mass-weighted Hessian:       Symmetric? True   Hermitian? True   Lin Dep Dim?  5 (0)
  projection of translations (True) and rotations (True) removed 5 degrees of freedom (5)
  total projector:                 Symmetric? True   Hermitian? True   Lin Dep Dim?  5 (5)
  mass-weighted Hessian:           Symmetric? True   Hermitian? True   Lin Dep Dim?  5 (0)
  pre-proj  low-frequency mode:    0.0000  [cm^-1]
  pre-proj  low-frequency mode:    0.0000  [cm^-1]
  pre-proj  low-frequency mode:    0.0000  [cm^-1]
  pre-proj  low-frequency mode:    0.0000  [cm^-1]
  pre-proj  low-frequency mode:    0.0000  [cm^-1]
  pre-proj  all modes:['0.0000' '0.0000' '0.0000' '0.0000' '0.0000' '513.1075']
  projected mass-weighted Hessian: Symmetric? True   Hermitian? True   Lin Dep Dim?  5 (5)
  post-proj low-frequency mode:    0.0000  [cm^-1] (TR)
  post-proj low-frequency mode:    0.0000  [cm^-1] (TR)
  post-proj low-frequency mode:    0.0000  [cm^-1] (TR)
  post-proj low-frequency mode:    0.0000  [cm^-1] (TR)
  post-proj low-frequency mode:    0.0000  [cm^-1] (TR)
  post-proj  all modes:['0.0000' '0.0000' '0.0000' '0.0000' '0.0000' '513.1075']

  Vibration                       6           
  Freq [cm^-1]                 513.1075       
  Irrep                           A1          
  Reduced mass [u]             20.6389        
  Force const [mDyne/A]         3.2015        
  Turning point v=0 [a0]        0.1066        
  RMS dev v=0 [a0 u^1/2]        0.3425        
  Char temp [K]                738.2474       
  ----------------------------------------------------------------------------------
      1   AU               0.00  0.00 -0.10   
      2   F                0.00  0.00  1.00   

  ==> Thermochemistry Components <==

  Entropy, S
    Electronic S            0.000 [cal/(mol K)]        0.000 [J/(mol K)]       0.00000000 [mEh/K] (multiplicity = 1)
    Translational S        42.013 [cal/(mol K)]      175.783 [J/(mol K)]       0.06695206 [mEh/K] (mol. weight = 215.9650 [u], P = 101325.00 [Pa])
    Rotational S           15.312 [cal/(mol K)]       64.067 [J/(mol K)]       0.02440198 [mEh/K] (symmetry no. = 1)
    Vibrational S           0.626 [cal/(mol K)]        2.620 [J/(mol K)]       0.00099783 [mEh/K]
  Total S                  57.952 [cal/(mol K)]      242.470 [J/(mol K)]       0.09235188 [mEh/K]
  Correction S              0.000 [cal/(mol K)]        0.000 [J/(mol K)]       0.00000000 [mEh/K]

  Constant volume heat capacity, Cv
    Electronic Cv           0.000 [cal/(mol K)]        0.000 [J/(mol K)]       0.00000000 [mEh/K]
    Translational Cv        2.981 [cal/(mol K)]       12.472 [J/(mol K)]       0.00475022 [mEh/K]
    Rotational Cv           1.987 [cal/(mol K)]        8.314 [J/(mol K)]       0.00316681 [mEh/K]
    Vibrational Cv          1.221 [cal/(mol K)]        5.108 [J/(mol K)]       0.00194571 [mEh/K]
  Total Cv                  6.189 [cal/(mol K)]       25.895 [J/(mol K)]       0.00986274 [mEh/K]
  Correction Cv             0.000 [cal/(mol K)]        0.000 [J/(mol K)]       0.00000000 [mEh/K]

  Constant pressure heat capacity, Cp
    Electronic Cp           0.000 [cal/(mol K)]        0.000 [J/(mol K)]       0.00000000 [mEh/K]
    Translational Cp        4.968 [cal/(mol K)]       20.786 [J/(mol K)]       0.00791703 [mEh/K]
    Rotational Cp           1.987 [cal/(mol K)]        8.314 [J/(mol K)]       0.00316681 [mEh/K]
    Vibrational Cp          1.221 [cal/(mol K)]        5.108 [J/(mol K)]       0.00194571 [mEh/K]
  Total Cp                  8.176 [cal/(mol K)]       34.209 [J/(mol K)]       0.01302955 [mEh/K]
  Correction Cp             0.000 [cal/(mol K)]        0.000 [J/(mol K)]       0.00000000 [mEh/K]

  ==> Thermochemistry Energy Analysis <==

  Raw electronic energy, E0
  Total E0, Electronic energy at well bottom at 0 [K]                 -235.59241321 [Eh]

  Zero-point energy, ZPE_vib = Sum_i nu_i / 2
    Electronic ZPE          0.000 [kcal/mol]        0.000 [kJ/mol]       0.00000000 [Eh]
    Translational ZPE       0.000 [kcal/mol]        0.000 [kJ/mol]       0.00000000 [Eh]
    Rotational ZPE          0.000 [kcal/mol]        0.000 [kJ/mol]       0.00000000 [Eh]
    Vibrational ZPE         0.734 [kcal/mol]        3.069 [kJ/mol]       0.00116894 [Eh]         256.554 [cm^-1]
  Correction ZPE            0.734 [kcal/mol]        3.069 [kJ/mol]       0.00116894 [Eh]         256.554 [cm^-1]
  Total ZPE, Electronic energy at 0 [K]                               -235.59124427 [Eh]

  Thermal Energy, E (includes ZPE)
    Electronic E            0.000 [kcal/mol]        0.000 [kJ/mol]       0.00000000 [Eh]
    Translational E         0.889 [kcal/mol]        3.718 [kJ/mol]       0.00141628 [Eh]
    Rotational E            0.592 [kcal/mol]        2.479 [kJ/mol]       0.00094418 [Eh]
    Vibrational E           0.868 [kcal/mol]        3.632 [kJ/mol]       0.00138353 [Eh]
  Correction E              2.349 [kcal/mol]        9.830 [kJ/mol]       0.00374400 [Eh]
  Total E, Electronic energy at  298.15 [K]                           -235.58866922 [Eh]

  Enthalpy, H_trans = E_trans + k_B * T
    Electronic H            0.000 [kcal/mol]        0.000 [kJ/mol]       0.00000000 [Eh]
    Translational H         1.481 [kcal/mol]        6.197 [kJ/mol]       0.00236046 [Eh]
    Rotational H            0.592 [kcal/mol]        2.479 [kJ/mol]       0.00094418 [Eh]
    Vibrational H           0.868 [kcal/mol]        3.632 [kJ/mol]       0.00138353 [Eh]
  Correction H              2.942 [kcal/mol]       12.309 [kJ/mol]       0.00468818 [Eh]
  Total H, Enthalpy at  298.15 [K]                                    -235.58772503 [Eh]

  Gibbs free energy, G = H - T * S
    Electronic G            0.000 [kcal/mol]        0.000 [kJ/mol]       0.00000000 [Eh]
    Translational G       -11.045 [kcal/mol]      -46.212 [kJ/mol]      -0.01760129 [Eh]
    Rotational G           -3.973 [kcal/mol]      -16.623 [kJ/mol]      -0.00633127 [Eh]
    Vibrational G           0.681 [kcal/mol]        2.851 [kJ/mol]       0.00108603 [Eh]
  Correction G            -14.336 [kcal/mol]      -59.984 [kJ/mol]      -0.02284653 [Eh]
  Total G, Free enthalpy at  298.15 [K]                               -235.61525975 [Eh]

    Psi4 stopped on: Friday, 05 November 2021 08:55AM
    Psi4 wall time for execution: 0:05:05.59

*** Psi4 exiting successfully. Buy a developer a beer!
