
    -----------------------------------------------------------------------
          Psi4: An Open-Source Ab Initio Electronic Structure Package
                               Psi4 1.4.1 release

                         Git: Rev {HEAD} cd00f19 


    D. G. A. Smith, L. A. Burns, A. C. Simmonett, R. M. Parrish,
    M. C. Schieber, R. Galvelis, P. Kraus, H. Kruse, R. Di Remigio,
    A. Alenaizan, A. M. James, S. Lehtola, J. P. Misiewicz, M. Scheurer,
    R. A. Shaw, J. B. Schriber, Y. Xie, Z. L. Glick, D. A. Sirianni,
    J. S. O'Brien, J. M. Waldrop, A. Kumar, E. G. Hohenstein,
    B. P. Pritchard, B. R. Brooks, H. F. Schaefer III, A. Yu. Sokolov,
    K. Patkowski, A. E. DePrince III, U. Bozkaya, R. A. King,
    F. A. Evangelista, J. M. Turney, T. D. Crawford, C. D. Sherrill,
    J. Chem. Phys. 152(18) 184108 (2020). https://doi.org/10.1063/5.0006002

                            Additional Code Authors
    E. T. Seidl, C. L. Janssen, E. F. Valeev, M. L. Leininger,
    J. F. Gonthier, R. M. Richard, H. R. McAlexander, M. Saitow, X. Wang,
    P. Verma, and M. H. Lechner

             Previous Authors, Complete List of Code Contributors,
                       and Citations for Specific Modules
    https://github.com/psi4/psi4/blob/master/codemeta.json
    https://github.com/psi4/psi4/graphs/contributors
    http://psicode.org/psi4manual/master/introduction.html#citing-psifour

    -----------------------------------------------------------------------


    Psi4 started on: Friday, 05 November 2021 08:56AM

    Process ID: 22633
    Host:       compute286.bc4.acrc.priv
    PSIDATADIR: /mnt/storage/home/zw18965/.conda/envs/p4env/share/psi4
    Memory:     500.0 MiB
    Threads:    28
    
  ==> Input File <==

--------------------------------------------------------------------------
memory 120 GB

molecule {
0 1
Au       0.000000    0.000000    1.239541 
Au       0.000000    0.000000   -1.239541 
 }

set dynamic_level 1
set basis Def2-TZVPPD

optimize("SCAN-D3BJ")
frequencies("SCAN-D3BJ")
--------------------------------------------------------------------------

  Memory set to 111.759 GiB by Python driver.

Scratch directory: /tmp/
gradient() will perform analytic gradient computation.

*** tstart() called on compute286.bc4.acrc.priv
*** at Fri Nov  5 08:56:23 2021

   => Loading Basis Set <=

    Name: DEF2-TZVPPD
    Role: ORBITAL
    Keyword: BASIS
    atoms 1-2 entry AU         line  2995 (ECP: line  4084) file /mnt/storage/home/zw18965/.conda/envs/p4env/share/psi4/basis/def2-tzvppd.gbs 

    !!!  WARNING: ECP capability is in beta. Please check occupations closely.  !!!

   => SCAN-D3(BJ): Empirical Dispersion <=

    Grimme's -D3 (BJ-damping) Dispersion Correction
    Grimme S.; Ehrlich S.; Goerigk L. (2011), J. Comput. Chem., 32: 1456
    Parametrisation from:    J.G. Brandenburg, J. E. Bates, J. Sun, J.P. Perdew, Phys. Rev. B 94, 115144, 2016

        s6 =       1.000000
        s8 =       0.000000
        a1 =       0.538000
        a2 =       5.420000


         ---------------------------------------------------------
                                   SCF
               by Justin Turney, Rob Parrish, Andy Simmonett
                          and Daniel G. A. Smith
                              RKS Reference
                       28 Threads, 114440 MiB Core
         ---------------------------------------------------------

  ==> Geometry <==

    Molecular point group: d2h
    Full point group: D_inf_h

    Geometry (in Angstrom), charge = 0, multiplicity = 1:

       Center              X                  Y                   Z               Mass       
    ------------   -----------------  -----------------  -----------------  -----------------
         AU           0.000000000000     0.000000000000     1.239541000000   196.966568790000
         AU           0.000000000000     0.000000000000    -1.239541000000   196.966568790000

  Running in d2h symmetry.

  Rotational constants: A = ************  B =      0.02785  C =      0.02785 [cm^-1]
  Rotational constants: A = ************  B =    834.97388  C =    834.97388 [MHz]
  Nuclear repulsion =   77.057948487331174

  Charge       = 0
  Multiplicity = 1
  Electrons    = 38
  Nalpha       = 19
  Nbeta        = 19

  ==> Algorithm <==

  SCF Algorithm Type is DF.
  DIIS enabled.
  MOM disabled.
  Fractional occupation disabled.
  Guess Type is SAD.
  Energy threshold   = 1.00e-08
  Density threshold  = 1.00e-08
  Integral threshold = 1.00e-12

  ==> Primary Basis <==

  Basis Set: DEF2-TZVPPD
    Blend: DEF2-TZVPPD
    Number of shells: 34
    Number of basis functions: 118
    Number of Cartesian functions: 148
    Spherical Harmonics?: true
    Max angular momentum: 4

  Core potential: DEF2-TZVPPD
    Number of shells: 8
    Number of ECP primitives: 28
    Number of ECP core electrons: 120
    Max angular momentum: 3

  ==> DFT Potential <==

   => Composite Functional: SCAN-D3BJ <= 

    SCAN Meta-GGA XC Functional
(10.1103/PhysRevLett.115.036402)
    J. Sun, A. Ruzsinszky, J. P. Perdew  Phys. Rev. Lett. 115, 036402, 2015


    Deriv               =              1
    GGA                 =           TRUE
    Meta                =           TRUE

    Exchange Hybrid     =          FALSE
    MP2 Hybrid          =          FALSE

   => Exchange Functionals <=

    1.0000   XC_MGGA_X_SCAN

   => Correlation Functionals <=

    1.0000   XC_MGGA_C_SCAN

   => LibXC Density Thresholds  <==

    XC_MGGA_C_SCAN:  1.00E-15 
    XC_MGGA_X_SCAN:  1.00E-15 

   => Molecular Quadrature <=

    Radial Scheme          =       TREUTLER
    Pruning Scheme         =           NONE
    Nuclear Scheme         =       TREUTLER

    BS radius alpha        =              1
    Pruning alpha          =              1
    Radial Points          =             75
    Spherical Points       =            302
    Total Points           =          42538
    Total Blocks           =            414
    Max Points             =            255
    Max Functions          =            116
    Weights Tolerance      =       1.00E-15

   => Loading Basis Set <=

    Name: (DEF2-TZVPPD AUX)
    Role: JKFIT
    Keyword: DF_BASIS_SCF
    atoms 1-2 entry AU         line  8426 file /mnt/storage/home/zw18965/.conda/envs/p4env/share/psi4/basis/def2-universal-jkfit.gbs 

  ==> Integral Setup <==

  DFHelper Memory: AOs need 0.060 GiB; user supplied 83.523 GiB. Using in-core AOs.

  ==> MemDFJK: Density-Fitted J/K Matrices <==

    J tasked:                   Yes
    K tasked:                    No
    wK tasked:                   No
    OpenMP threads:              28
    Memory [MiB]:             85527
    Algorithm:                 Core
    Schwarz Cutoff:           1E-12
    Mask sparsity (%):       0.3735
    Fitting Condition:        1E-10

   => Auxiliary Basis Set <=

  Basis Set: (DEF2-TZVPPD AUX)
    Blend: DEF2-UNIVERSAL-JKFIT
    Number of shells: 102
    Number of basis functions: 494
    Number of Cartesian functions: 730
    Spherical Harmonics?: true
    Max angular momentum: 6

  Cached 100.0% of DFT collocation blocks in 0.296 [GiB].

  Minimum eigenvalue in the overlap matrix is 3.7000658953E-03.
  Reciprocal condition number of the overlap matrix is 8.8569748124E-04.
    Using symmetric orthogonalization.

  ==> Pre-Iterations <==

  SCF Guess: Superposition of Atomic Densities via on-the-fly atomic UHF (no occupation information).

   -------------------------
    Irrep   Nso     Nmo    
   -------------------------
     Ag        24      24 
     B1g        7       7 
     B2g       14      14 
     B3g       14      14 
     Au         7       7 
     B1u       24      24 
     B2u       14      14 
     B3u       14      14 
   -------------------------
    Total     118     118
   -------------------------

  ==> Iterations <==

                           Total Energy        Delta E     RMS |[F,P]|

   @DF-RKS iter SAD:  -271.03882060031219   -2.71039e+02   0.00000e+00 
   @DF-RKS iter   1:  -271.48142470519156   -4.42604e-01   1.00868e-02 DIIS
   @DF-RKS iter   2:  -271.13901083583039    3.42414e-01   2.35781e-02 DIIS
   @DF-RKS iter   3:  -271.56161058000703   -4.22600e-01   1.84525e-03 DIIS
   @DF-RKS iter   4:  -271.56385638432721   -2.24580e-03   9.78409e-04 DIIS
   @DF-RKS iter   5:  -271.56450665174515   -6.50267e-04   1.60288e-04 DIIS
   @DF-RKS iter   6:  -271.56452184994470   -1.51982e-05   4.96312e-05 DIIS
   @DF-RKS iter   7:  -271.56452379385553   -1.94391e-06   7.54294e-06 DIIS
   @DF-RKS iter   8:  -271.56452384162816   -4.77726e-08   6.83134e-07 DIIS
   @DF-RKS iter   9:  -271.56452384213657   -5.08408e-10   1.59035e-07 DIIS
   @DF-RKS iter  10:  -271.56452384215839   -2.18279e-11   6.59682e-09 DIIS
  Energy and wave function converged.


  ==> Post-Iterations <==

   Electrons on quadrature grid:
      Ntotal   =   38.0000016256 ; deviation = 1.626e-06 

    Orbital Energies [Eh]
    ---------------------

    Doubly Occupied:                                                      

       1Ag    -4.102296     1B1u   -4.101538     2Ag    -2.296763  
       2B1u   -2.284679     1B2u   -2.279157     1B3u   -2.279157  
       1B3g   -2.277972     1B2g   -2.277972     3Ag    -0.351750  
       2B2u   -0.306533     2B3u   -0.306533     4Ag    -0.267097  
       1B1g   -0.267032     3B1u   -0.253600     1Au    -0.253535  
       5Ag    -0.247112     2B3g   -0.242001     2B2g   -0.242001  
       4B1u   -0.238519  

    Virtual:                                                              

       5B1u   -0.154614     3B3u   -0.035829     3B2u   -0.035829  
       6Ag    -0.016666     3B2g    0.040641     3B3g    0.040641  
       6B1u    0.079492     7Ag     0.151264     8Ag     0.174772  
       4B2u    0.175747     4B3u    0.175747     4B3g    0.225814  
       4B2g    0.225814     7B1u    0.230812     9Ag     0.283832  
       2B1g    0.283838     8B1u    0.327546     5B3u    0.339737  
       5B2u    0.339737     9B1u    0.366335     2Au     0.366341  
       5B2g    0.453336     5B3g    0.453336    10Ag     0.455211  
      10B1u    0.593651    11Ag     0.838164     6B3u    0.933248  
       6B2u    0.933248    12Ag     1.041426     3B1g    1.041477  
      11B1u    1.074221     7B3u    1.078199     7B2u    1.078199  
       6B2g    1.086823     6B3g    1.086823     8B3u    1.111458  
       8B2u    1.111458     7B2g    1.132122     7B3g    1.132122  
      12B1u    1.199271     3Au     1.199328    13Ag     1.325942  
      13B1u    1.359446     8B2g    1.372392     8B3g    1.372392  
       9B2u    1.434604     9B3u    1.434604     4B1g    1.447851  
      14Ag     1.447859    15Ag     1.503569     4Au     1.503757  
      14B1u    1.503773     9B3g    1.677590     9B2g    1.677590  
      15B1u    2.020956    16Ag     2.124761    16B1u    2.613049  
      10B2u    3.516887    10B3u    3.516887    17Ag     3.520391  
       5B1g    3.520538    11B2u    3.575177    11B3u    3.575177  
      10B3g    3.594474    10B2g    3.594474    17B1u    3.661794  
       5Au     3.661949    18Ag     3.741664    11B3g    3.816430  
      11B2g    3.816430    18B1u    3.902956    19Ag     4.119302  
      12B2u    4.136689    12B3u    4.136689     6B1g    4.148353  
      20Ag     4.148580    13B3u    4.159637    13B2u    4.159637  
      12B2g    4.161594    12B3g    4.161594     6Au     4.167114  
      19B1u    4.167362    21Ag     4.167786    20B1u    4.167878  
       7B1g    4.168298     7Au     4.168390    13B3g    4.276875  
      13B2g    4.276875    21B1u    4.566320    14B2u   27.356719  
      14B3u   27.356719    22Ag    27.549551    14B3g   27.807424  
      14B2g   27.807424    22B1u   30.578185    23Ag    44.105673  
      23B1u   44.570272    24Ag   205.188324    24B1u  205.388520  

    Final Occupation by Irrep:
             Ag   B1g   B2g   B3g    Au   B1u   B2u   B3u 
    DOCC [     5,    1,    2,    2,    1,    4,    2,    2 ]

  @DF-RKS Final Energy:  -271.56452384215839

   => Energetics <=

    Nuclear Repulsion Energy =             77.0579484873311742
    One-Electron Energy =                -631.3782330609117253
    Two-Electron Energy =                 308.5013100377311730
    DFT Exchange-Correlation Energy =     -25.7453434463090041
    Empirical Dispersion Energy =          -0.0002058600000000
    VV10 Nonlocal Energy =                  0.0000000000000000
    Total Energy =                       -271.5645238421583940

Computation Completed


Properties will be evaluated at   0.000000,   0.000000,   0.000000 [a0]

Properties computed using the SCF density matrix

  Nuclear Dipole Moment: [e a0]
     X:     0.0000      Y:     0.0000      Z:     0.0000

  Electronic Dipole Moment: [e a0]
     X:     0.0000      Y:     0.0000      Z:     0.0000

  Dipole Moment: [e a0]
     X:     0.0000      Y:     0.0000      Z:     0.0000     Total:     0.0000

  Dipole Moment: [D]
     X:     0.0000      Y:     0.0000      Z:     0.0000     Total:     0.0000


*** tstop() called on compute286.bc4.acrc.priv at Fri Nov  5 08:56:30 2021
Module time:
	user time   =      56.60 seconds =       0.94 minutes
	system time =       2.05 seconds =       0.03 minutes
	total time  =          7 seconds =       0.12 minutes
Total time:
	user time   =      56.60 seconds =       0.94 minutes
	system time =       2.05 seconds =       0.03 minutes
	total time  =          7 seconds =       0.12 minutes

*** tstart() called on compute286.bc4.acrc.priv
*** at Fri Nov  5 08:56:30 2021


         ------------------------------------------------------------
                                   SCF GRAD                          
                          Rob Parrish, Justin Turney,                
                       Andy Simmonett, and Alex Sokolov              
         ------------------------------------------------------------

  ==> Geometry <==

    Molecular point group: d2h
    Full point group: D_inf_h

    Geometry (in Angstrom), charge = 0, multiplicity = 1:

       Center              X                  Y                   Z               Mass       
    ------------   -----------------  -----------------  -----------------  -----------------
         AU           0.000000000000     0.000000000000     1.239541000000   196.966568790000
         AU           0.000000000000     0.000000000000    -1.239541000000   196.966568790000

  Nuclear repulsion =   77.057948487331174

  ==> Basis Set <==

  Basis Set: DEF2-TZVPPD
    Blend: DEF2-TZVPPD
    Number of shells: 34
    Number of basis functions: 118
    Number of Cartesian functions: 148
    Spherical Harmonics?: true
    Max angular momentum: 4

  Core potential: DEF2-TZVPPD
    Number of shells: 8
    Number of ECP primitives: 28
    Number of ECP core electrons: 120
    Max angular momentum: 3

  ==> DFJKGrad: Density-Fitted SCF Gradients <==

    Gradient:                    1
    J tasked:                  Yes
    K tasked:                   No
    wK tasked:                  No
    OpenMP threads:             28
    Integrals threads:          28
    Memory [MiB]:            85830
    Schwarz Cutoff:          1E-12
    Fitting Condition:       1E-10

   => Auxiliary Basis Set <=

  Basis Set: (DEF2-TZVPPD AUX)
    Blend: DEF2-UNIVERSAL-JKFIT
    Number of shells: 102
    Number of basis functions: 494
    Number of Cartesian functions: 730
    Spherical Harmonics?: true
    Max angular momentum: 6

  ==> DFT Potential <==

   => Composite Functional: SCAN-D3BJ <= 

    SCAN Meta-GGA XC Functional
(10.1103/PhysRevLett.115.036402)
    J. Sun, A. Ruzsinszky, J. P. Perdew  Phys. Rev. Lett. 115, 036402, 2015


    Deriv               =              1
    GGA                 =           TRUE
    Meta                =           TRUE

    Exchange Hybrid     =          FALSE
    MP2 Hybrid          =          FALSE

   => Exchange Functionals <=

    1.0000   XC_MGGA_X_SCAN

   => Correlation Functionals <=

    1.0000   XC_MGGA_C_SCAN

   => LibXC Density Thresholds  <==

    XC_MGGA_C_SCAN:  1.00E-15 
    XC_MGGA_X_SCAN:  1.00E-15 

   => Molecular Quadrature <=

    Radial Scheme          =       TREUTLER
    Pruning Scheme         =           NONE
    Nuclear Scheme         =       TREUTLER

    BS radius alpha        =              1
    Pruning alpha          =              1
    Radial Points          =             75
    Spherical Points       =            302
    Total Points           =          42538
    Total Blocks           =            414
    Max Points             =            255
    Max Functions          =            116
    Weights Tolerance      =       1.00E-15


  -Total Gradient:
     Atom            X                  Y                   Z
    ------   -----------------  -----------------  -----------------
       1        0.000000000000     0.000000000000    -0.096320172040
       2        0.000000000000     0.000000000000     0.096320172040


*** tstop() called on compute286.bc4.acrc.priv at Fri Nov  5 08:56:37 2021
Module time:
	user time   =      42.46 seconds =       0.71 minutes
	system time =       2.57 seconds =       0.04 minutes
	total time  =          7 seconds =       0.12 minutes
Total time:
	user time   =     100.38 seconds =       1.67 minutes
	system time =       4.67 seconds =       0.08 minutes
	total time  =         14 seconds =       0.23 minutes


  ==> Adding ECP gradient terms (computed numerically) <==

  -ECP Gradient:
     Atom            X                  Y                   Z
    ------   -----------------  -----------------  -----------------
       1        0.000000000000     0.000000000000     0.099339023280
       2        0.000000000000     0.000000000000    -0.099339023280


  -Total Gradient:
     Atom            X                  Y                   Z
    ------   -----------------  -----------------  -----------------
       1        0.000000000000     0.000000000000     0.003018851240
       2        0.000000000000     0.000000000000    -0.003018851240


			-----------------------------------------
			 OPTKING 2.0: for geometry optimizations 
			  - R.A. King,  Bethel University        
			-----------------------------------------
	At level 1: Red. Int., RFO, no backsteps, dynamic trust

	Internal coordinates to be generated automatically.
	Detected frag 1 with atoms:  1 2
	---Fragment 1 Bond Connectivity---
	 1 : 2
	 2 : 1

	---Fragment 1 Geometry and Gradient---
	 AU          0.0000000000        0.0000000000        2.3423930113
	 AU          0.0000000000        0.0000000000       -2.3423930113
	             0.0000000000        0.0000000000        0.0030188512
	             0.0000000000        0.0000000000       -0.0030188512

	Previous optimization step data not found.  Starting new optimization.

	---Fragment 1 Intrafragment Coordinates---
	 - Coordinate -           - BOHR/RAD -       - ANG/DEG -
	 R(1,2)           =         4.684786	       2.479082

	Current energy   :      -271.5645238422

	Generating empirical Hessian (Schlegel '84) for each fragment.
	Taking RFO optimization step.
	Going to follow RFO solution 1.
	Using RFO vector 1.
	Norm of target step-size    0.03117
	Projected energy change by RFO approximation:         0.0003911825

	Back-transformation to cartesian coordinates...
	Successfully converged to displaced geometry.

	--- Internal Coordinate Step in ANG or DEG, aJ/ANG or AJ/DEG ---
	 ---------------------------------------------------------------------------
	   Coordinate                Previous        Force       Change         New 
	   ----------                --------       ------       ------       ------
	    1 R(1,2)          =      2.479082    -0.024871    -0.016492     2.462590
	 ---------------------------------------------------------------------------
	Successfully symmetrized geometry.

  ==> Convergence Check <==

  Measures of convergence in internal coordinates in au.
  Criteria marked as inactive (o), active & met (*), and active & unmet ( ).
  --------------------------------------------------------------------------------------------- ~
   Step     Total Energy     Delta E     MAX Force     RMS Force      MAX Disp      RMS Disp    ~
  --------------------------------------------------------------------------------------------- ~
    Convergence Criteria    1.00e-06 *    3.00e-04 *             o    1.20e-03 *             o  ~
  --------------------------------------------------------------------------------------------- ~
      1    -271.56452384   -2.72e+02      3.02e-03      3.02e-03 o    3.12e-02      3.12e-02 o  ~
  ---------------------------------------------------------------------------------------------

	Writing optimization data to binary file.
	Structure for next step:
	Cartesian Geometry (in Angstrom)
	   AU     0.0000000000   0.0000000000   1.2312949377
	   AU     0.0000000000   0.0000000000  -1.2312949377
			--------------------------
			 OPTKING Finished Execution 
			--------------------------

    Structure for next step:
    Molecular point group: d2h
    Full point group: D_inf_h

    Geometry (in Angstrom), charge = 0, multiplicity = 1:

    AU           0.000000000000     0.000000000000     1.231294942506
    AU           0.000000000000     0.000000000000    -1.231294942506


Scratch directory: /tmp/
gradient() will perform analytic gradient computation.

*** tstart() called on compute286.bc4.acrc.priv
*** at Fri Nov  5 08:57:41 2021

   => Loading Basis Set <=

    Name: DEF2-TZVPPD
    Role: ORBITAL
    Keyword: BASIS
    atoms 1-2 entry AU         line  2995 (ECP: line  4084) file /mnt/storage/home/zw18965/.conda/envs/p4env/share/psi4/basis/def2-tzvppd.gbs 

    !!!  WARNING: ECP capability is in beta. Please check occupations closely.  !!!

   => SCAN-D3(BJ): Empirical Dispersion <=

    Grimme's -D3 (BJ-damping) Dispersion Correction
    Grimme S.; Ehrlich S.; Goerigk L. (2011), J. Comput. Chem., 32: 1456
    Parametrisation from:    J.G. Brandenburg, J. E. Bates, J. Sun, J.P. Perdew, Phys. Rev. B 94, 115144, 2016

        s6 =       1.000000
        s8 =       0.000000
        a1 =       0.538000
        a2 =       5.420000


         ---------------------------------------------------------
                                   SCF
               by Justin Turney, Rob Parrish, Andy Simmonett
                          and Daniel G. A. Smith
                              RKS Reference
                       28 Threads, 114440 MiB Core
         ---------------------------------------------------------

  ==> Geometry <==

    Molecular point group: d2h
    Full point group: D_inf_h

    Geometry (in Angstrom), charge = 0, multiplicity = 1:

       Center              X                  Y                   Z               Mass       
    ------------   -----------------  -----------------  -----------------  -----------------
         AU           0.000000000000     0.000000000000     1.231294942506   196.966568790000
         AU           0.000000000000     0.000000000000    -1.231294942506   196.966568790000

  Running in d2h symmetry.

  Rotational constants: A = ************  B =      0.02823  C =      0.02823 [cm^-1]
  Rotational constants: A = ************  B =    846.19507  C =    846.19507 [MHz]
  Nuclear repulsion =   77.574010278588602

  Charge       = 0
  Multiplicity = 1
  Electrons    = 38
  Nalpha       = 19
  Nbeta        = 19

  ==> Algorithm <==

  SCF Algorithm Type is DF.
  DIIS enabled.
  MOM disabled.
  Fractional occupation disabled.
  Guess Type is READ.
  Energy threshold   = 1.00e-08
  Density threshold  = 1.00e-08
  Integral threshold = 1.00e-12

  ==> Primary Basis <==

  Basis Set: DEF2-TZVPPD
    Blend: DEF2-TZVPPD
    Number of shells: 34
    Number of basis functions: 118
    Number of Cartesian functions: 148
    Spherical Harmonics?: true
    Max angular momentum: 4

  Core potential: DEF2-TZVPPD
    Number of shells: 8
    Number of ECP primitives: 28
    Number of ECP core electrons: 120
    Max angular momentum: 3

  ==> DFT Potential <==

   => Composite Functional: SCAN-D3BJ <= 

    SCAN Meta-GGA XC Functional
(10.1103/PhysRevLett.115.036402)
    J. Sun, A. Ruzsinszky, J. P. Perdew  Phys. Rev. Lett. 115, 036402, 2015


    Deriv               =              1
    GGA                 =           TRUE
    Meta                =           TRUE

    Exchange Hybrid     =          FALSE
    MP2 Hybrid          =          FALSE

   => Exchange Functionals <=

    1.0000   XC_MGGA_X_SCAN

   => Correlation Functionals <=

    1.0000   XC_MGGA_C_SCAN

   => LibXC Density Thresholds  <==

    XC_MGGA_C_SCAN:  1.00E-15 
    XC_MGGA_X_SCAN:  1.00E-15 

   => Molecular Quadrature <=

    Radial Scheme          =       TREUTLER
    Pruning Scheme         =           NONE
    Nuclear Scheme         =       TREUTLER

    BS radius alpha        =              1
    Pruning alpha          =              1
    Radial Points          =             75
    Spherical Points       =            302
    Total Points           =          42538
    Total Blocks           =            416
    Max Points             =            255
    Max Functions          =            116
    Weights Tolerance      =       1.00E-15

   => Loading Basis Set <=

    Name: (DEF2-TZVPPD AUX)
    Role: JKFIT
    Keyword: DF_BASIS_SCF
    atoms 1-2 entry AU         line  8426 file /mnt/storage/home/zw18965/.conda/envs/p4env/share/psi4/basis/def2-universal-jkfit.gbs 

   => Loading Basis Set <=

    Name: DEF2-TZVPPD
    Role: ORBITAL
    Keyword: BASIS
    atoms 1-2 entry AU         line  2995 (ECP: line  4084) file /mnt/storage/home/zw18965/.conda/envs/p4env/share/psi4/basis/def2-tzvppd.gbs 

    !!!  WARNING: ECP capability is in beta. Please check occupations closely.  !!!

  Reading orbitals from file /tmp/Au02N0.default.22633.180.npy, no projection.

  ==> Integral Setup <==

  DFHelper Memory: AOs need 0.060 GiB; user supplied 83.523 GiB. Using in-core AOs.

  ==> MemDFJK: Density-Fitted J/K Matrices <==

    J tasked:                   Yes
    K tasked:                    No
    wK tasked:                   No
    OpenMP threads:              28
    Memory [MiB]:             85527
    Algorithm:                 Core
    Schwarz Cutoff:           1E-12
    Mask sparsity (%):       0.3735
    Fitting Condition:        1E-10

   => Auxiliary Basis Set <=

  Basis Set: (DEF2-TZVPPD AUX)
    Blend: DEF2-UNIVERSAL-JKFIT
    Number of shells: 102
    Number of basis functions: 494
    Number of Cartesian functions: 730
    Spherical Harmonics?: true
    Max angular momentum: 6

  Cached 100.0% of DFT collocation blocks in 0.296 [GiB].

  Minimum eigenvalue in the overlap matrix is 3.5873947878E-03.
  Reciprocal condition number of the overlap matrix is 8.5625652849E-04.
    Using symmetric orthogonalization.

  ==> Pre-Iterations <==

  SCF Guess: Orbitals guess was supplied from a previous computation.

   -------------------------------------------------------
    Irrep   Nso     Nmo     Nalpha   Nbeta   Ndocc  Nsocc
   -------------------------------------------------------
     Ag        24      24       5       5       5       0
     B1g        7       7       1       1       1       0
     B2g       14      14       2       2       2       0
     B3g       14      14       2       2       2       0
     Au         7       7       1       1       1       0
     B1u       24      24       4       4       4       0
     B2u       14      14       2       2       2       0
     B3u       14      14       2       2       2       0
   -------------------------------------------------------
    Total     118     118      19      19      19       0
   -------------------------------------------------------

  ==> Iterations <==

                           Total Energy        Delta E     RMS |[F,P]|

   @DF-RKS iter   0:  -271.56836728868154   -2.71568e+02   9.12609e-04 
   @DF-RKS iter   1:  -271.56448896032987    3.87833e-03   1.18416e-04 DIIS
   @DF-RKS iter   2:  -271.56446746712834    2.14932e-05   2.15183e-04 DIIS
   @DF-RKS iter   3:  -271.56450043311480   -3.29660e-05   8.87849e-06 DIIS
   @DF-RKS iter   4:  -271.56450049031400   -5.71992e-08   1.05268e-06 DIIS
   @DF-RKS iter   5:  -271.56450049123879   -9.24786e-10   3.44740e-07 DIIS
   @DF-RKS iter   6:  -271.56450049129444   -5.56497e-11   2.14235e-07 DIIS
   @DF-RKS iter   7:  -271.56450049132883   -3.43903e-11   1.88630e-08 DIIS
   @DF-RKS iter   8:  -271.56450049132906   -2.27374e-13   2.22145e-09 DIIS
  Energy and wave function converged.


  ==> Post-Iterations <==

   Electrons on quadrature grid:
      Ntotal   =   38.0000028179 ; deviation = 2.818e-06 

    Orbital Energies [Eh]
    ---------------------

    Doubly Occupied:                                                      

       1Ag    -4.102725     1B1u   -4.101895     2Ag    -2.297809  
       2B1u   -2.284880     1B3u   -2.279485     1B2u   -2.279485  
       1B2g   -2.278209     1B3g   -2.278209     3Ag    -0.354103  
       2B3u   -0.308198     2B2u   -0.308198     4Ag    -0.267534  
       1B1g   -0.267468     3B1u   -0.253500     1Au    -0.253433  
       5Ag    -0.247652     2B2g   -0.241446     2B3g   -0.241446  
       4B1u   -0.237926  

    Virtual:                                                              

       5B1u   -0.153911     3B2u   -0.036006     3B3u   -0.036006  
       6Ag    -0.016220     3B2g    0.041244     3B3g    0.041244  
       6B1u    0.079788     7Ag     0.151495     8Ag     0.174964  
       4B2u    0.175605     4B3u    0.175605     4B3g    0.226315  
       4B2g    0.226315     7B1u    0.230885     9Ag     0.283922  
       2B1g    0.283929     8B1u    0.329793     5B3u    0.340614  
       5B2u    0.340614     9B1u    0.366801     2Au     0.366809  
       5B2g    0.453833     5B3g    0.453833    10Ag     0.455424  
      10B1u    0.596196    11Ag     0.838276     6B2u    0.929673  
       6B3u    0.929673    12Ag     1.038410     3B1g    1.038471  
      11B1u    1.074275     7B2u    1.080053     7B3u    1.080053  
       6B3g    1.087810     6B2g    1.087810     8B3u    1.110813  
       8B2u    1.110813     7B2g    1.132636     7B3g    1.132636  
      12B1u    1.202394     3Au     1.202462    13Ag     1.328156  
      13B1u    1.360918     8B2g    1.374992     8B3g    1.374992  
       9B3u    1.434290     9B2u    1.434290     4B1g    1.447152  
      14Ag     1.447158     4Au     1.504548    14B1u    1.504561  
      15Ag     1.506020     9B2g    1.685705     9B3g    1.685705  
      15B1u    2.036806    16Ag     2.128782    16B1u    2.621531  
      17Ag     3.518313     5B1g    3.518456    10B3u    3.519789  
      10B2u    3.519789    11B3u    3.574415    11B2u    3.574415  
      10B2g    3.594770    10B3g    3.594770    17B1u    3.664137  
       5Au     3.664292    18Ag     3.752991    11B2g    3.816600  
      11B3g    3.816600    18B1u    3.897737    19Ag     4.114585  
      12B2u    4.134073    12B3u    4.134073     6B1g    4.147202  
      20Ag     4.147363    13B3u    4.159187    13B2u    4.159187  
      12B2g    4.161433    12B3g    4.161433    21Ag     4.167618  
      19B1u    4.167725     7B1g    4.168103     6Au     4.168210  
       7Au     4.168429    20B1u    4.168616    13B2g    4.289013  
      13B3g    4.289013    21B1u    4.588376    14B3u   27.353734  
      14B2u   27.353734    22Ag    27.574767    14B3g   27.818948  
      14B2g   27.818948    22B1u   30.723459    23Ag    44.108903  
      23B1u   44.579110    24Ag   205.189488    24B1u  205.392016  

    Final Occupation by Irrep:
             Ag   B1g   B2g   B3g    Au   B1u   B2u   B3u 
    DOCC [     5,    1,    2,    2,    1,    4,    2,    2 ]

  @DF-RKS Final Energy:  -271.56450049132906

   => Energetics <=

    Nuclear Repulsion Energy =             77.5740102785886023
    One-Electron Energy =                -632.3920350008913829
    Two-Electron Energy =                 309.0016966828687828
    DFT Exchange-Correlation Energy =     -25.7479665418950852
    Empirical Dispersion Energy =          -0.0002059100000000
    VV10 Nonlocal Energy =                  0.0000000000000000
    Total Energy =                       -271.5645004913290563

Computation Completed


Properties will be evaluated at   0.000000,   0.000000,   0.000000 [a0]

Properties computed using the SCF density matrix

  Nuclear Dipole Moment: [e a0]
     X:     0.0000      Y:     0.0000      Z:     0.0000

  Electronic Dipole Moment: [e a0]
     X:     0.0000      Y:     0.0000      Z:     0.0000

  Dipole Moment: [e a0]
     X:     0.0000      Y:     0.0000      Z:     0.0000     Total:     0.0000

  Dipole Moment: [D]
     X:     0.0000      Y:     0.0000      Z:     0.0000     Total:     0.0000


*** tstop() called on compute286.bc4.acrc.priv at Fri Nov  5 08:57:45 2021
Module time:
	user time   =      45.28 seconds =       0.75 minutes
	system time =       1.38 seconds =       0.02 minutes
	total time  =          4 seconds =       0.07 minutes
Total time:
	user time   =     500.09 seconds =       8.33 minutes
	system time =      11.05 seconds =       0.18 minutes
	total time  =         82 seconds =       1.37 minutes

*** tstart() called on compute286.bc4.acrc.priv
*** at Fri Nov  5 08:57:45 2021


         ------------------------------------------------------------
                                   SCF GRAD                          
                          Rob Parrish, Justin Turney,                
                       Andy Simmonett, and Alex Sokolov              
         ------------------------------------------------------------

  ==> Geometry <==

    Molecular point group: d2h
    Full point group: D_inf_h

    Geometry (in Angstrom), charge = 0, multiplicity = 1:

       Center              X                  Y                   Z               Mass       
    ------------   -----------------  -----------------  -----------------  -----------------
         AU           0.000000000000     0.000000000000     1.231294942506   196.966568790000
         AU           0.000000000000     0.000000000000    -1.231294942506   196.966568790000

  Nuclear repulsion =   77.574010278588602

  ==> Basis Set <==

  Basis Set: DEF2-TZVPPD
    Blend: DEF2-TZVPPD
    Number of shells: 34
    Number of basis functions: 118
    Number of Cartesian functions: 148
    Spherical Harmonics?: true
    Max angular momentum: 4

  Core potential: DEF2-TZVPPD
    Number of shells: 8
    Number of ECP primitives: 28
    Number of ECP core electrons: 120
    Max angular momentum: 3

  ==> DFJKGrad: Density-Fitted SCF Gradients <==

    Gradient:                    1
    J tasked:                  Yes
    K tasked:                   No
    wK tasked:                  No
    OpenMP threads:             28
    Integrals threads:          28
    Memory [MiB]:            85830
    Schwarz Cutoff:          1E-12
    Fitting Condition:       1E-10

   => Auxiliary Basis Set <=

  Basis Set: (DEF2-TZVPPD AUX)
    Blend: DEF2-UNIVERSAL-JKFIT
    Number of shells: 102
    Number of basis functions: 494
    Number of Cartesian functions: 730
    Spherical Harmonics?: true
    Max angular momentum: 6

  ==> DFT Potential <==

   => Composite Functional: SCAN-D3BJ <= 

    SCAN Meta-GGA XC Functional
(10.1103/PhysRevLett.115.036402)
    J. Sun, A. Ruzsinszky, J. P. Perdew  Phys. Rev. Lett. 115, 036402, 2015


    Deriv               =              1
    GGA                 =           TRUE
    Meta                =           TRUE

    Exchange Hybrid     =          FALSE
    MP2 Hybrid          =          FALSE

   => Exchange Functionals <=

    1.0000   XC_MGGA_X_SCAN

   => Correlation Functionals <=

    1.0000   XC_MGGA_C_SCAN

   => LibXC Density Thresholds  <==

    XC_MGGA_C_SCAN:  1.00E-15 
    XC_MGGA_X_SCAN:  1.00E-15 

   => Molecular Quadrature <=

    Radial Scheme          =       TREUTLER
    Pruning Scheme         =           NONE
    Nuclear Scheme         =       TREUTLER

    BS radius alpha        =              1
    Pruning alpha          =              1
    Radial Points          =             75
    Spherical Points       =            302
    Total Points           =          42538
    Total Blocks           =            416
    Max Points             =            255
    Max Functions          =            116
    Weights Tolerance      =       1.00E-15


  -Total Gradient:
     Atom            X                  Y                   Z
    ------   -----------------  -----------------  -----------------
       1        0.000000000000     0.000000000000    -0.102181221741
       2        0.000000000000     0.000000000000     0.102181221741


*** tstop() called on compute286.bc4.acrc.priv at Fri Nov  5 08:57:52 2021
Module time:
	user time   =      38.30 seconds =       0.64 minutes
	system time =       2.92 seconds =       0.05 minutes
	total time  =          7 seconds =       0.12 minutes
Total time:
	user time   =     540.73 seconds =       9.01 minutes
	system time =      14.10 seconds =       0.23 minutes
	total time  =         89 seconds =       1.48 minutes


  ==> Adding ECP gradient terms (computed numerically) <==

  -ECP Gradient:
     Atom            X                  Y                   Z
    ------   -----------------  -----------------  -----------------
       1       -0.000000000000     0.000000000000     0.101054260918
       2       -0.000000000000     0.000000000000    -0.101054260918


  -Total Gradient:
     Atom            X                  Y                   Z
    ------   -----------------  -----------------  -----------------
       1       -0.000000000000     0.000000000000    -0.001126960823
       2       -0.000000000000     0.000000000000     0.001126960823


			-----------------------------------------
			 OPTKING 2.0: for geometry optimizations 
			  - R.A. King,  Bethel University        
			-----------------------------------------
	At level 1: Red. Int., RFO, no backsteps, dynamic trust

	Previous internal coordinate definitions found.
	---Fragment 1 Geometry and Gradient---
	 AU          0.0000000000        0.0000000000        2.3268102210
	 AU          0.0000000000        0.0000000000       -2.3268102210
	            -0.0000000000        0.0000000000       -0.0011269608
	            -0.0000000000        0.0000000000        0.0011269608

	---Fragment 1 Intrafragment Coordinates---
	 - Coordinate -           - BOHR/RAD -       - ANG/DEG -
	 R(1,2)           =         4.653620	       2.462590

	Current energy   :      -271.5645004913

	Energy change for the previous step:
		Projected    :         0.0003911825
		Actual       :         0.0000233508

	Performing BFGS update.
	Previous computed or guess Hessian on step 1.
	Steps to be used in Hessian update: 1
	Taking RFO optimization step.
	Going to follow RFO solution 1.
	Using RFO vector 1.
	Norm of target step-size    0.00847
	Projected energy change by RFO approximation:         0.0000263318

	Back-transformation to cartesian coordinates...
	Successfully converged to displaced geometry.

	--- Internal Coordinate Step in ANG or DEG, aJ/ANG or AJ/DEG ---
	 ---------------------------------------------------------------------------
	   Coordinate                Previous        Force       Change         New 
	   ----------                --------       ------       ------       ------
	    1 R(1,2)          =      2.462590     0.009285     0.004483     2.467073
	 ---------------------------------------------------------------------------
	Successfully symmetrized geometry.

  ==> Convergence Check <==

  Measures of convergence in internal coordinates in au.
  Criteria marked as inactive (o), active & met (*), and active & unmet ( ).
  ---------------------------------------------------------------------------------------------
   Step     Total Energy     Delta E     MAX Force     RMS Force      MAX Disp      RMS Disp   
  ---------------------------------------------------------------------------------------------
    Convergence Criteria    1.00e-06 *    3.00e-04 *             o    1.20e-03 *             o
  ---------------------------------------------------------------------------------------------
      2    -271.56450049    2.34e-05      1.13e-03      1.13e-03 o    8.47e-03      8.47e-03 o  ~
  ---------------------------------------------------------------------------------------------

	Writing optimization data to binary file.
	Structure for next step:
	Cartesian Geometry (in Angstrom)
	   AU     0.0000000000   0.0000000000   1.2335363120
	   AU     0.0000000000   0.0000000000  -1.2335363120
			--------------------------
			 OPTKING Finished Execution 
			--------------------------

    Structure for next step:
    Molecular point group: d2h
    Full point group: D_inf_h

    Geometry (in Angstrom), charge = 0, multiplicity = 1:

    AU           0.000000000000     0.000000000000     1.233536316868
    AU           0.000000000000     0.000000000000    -1.233536316868


Scratch directory: /tmp/
gradient() will perform analytic gradient computation.

*** tstart() called on compute286.bc4.acrc.priv
*** at Fri Nov  5 08:58:56 2021

   => Loading Basis Set <=

    Name: DEF2-TZVPPD
    Role: ORBITAL
    Keyword: BASIS
    atoms 1-2 entry AU         line  2995 (ECP: line  4084) file /mnt/storage/home/zw18965/.conda/envs/p4env/share/psi4/basis/def2-tzvppd.gbs 

    !!!  WARNING: ECP capability is in beta. Please check occupations closely.  !!!

   => SCAN-D3(BJ): Empirical Dispersion <=

    Grimme's -D3 (BJ-damping) Dispersion Correction
    Grimme S.; Ehrlich S.; Goerigk L. (2011), J. Comput. Chem., 32: 1456
    Parametrisation from:    J.G. Brandenburg, J. E. Bates, J. Sun, J.P. Perdew, Phys. Rev. B 94, 115144, 2016

        s6 =       1.000000
        s8 =       0.000000
        a1 =       0.538000
        a2 =       5.420000


         ---------------------------------------------------------
                                   SCF
               by Justin Turney, Rob Parrish, Andy Simmonett
                          and Daniel G. A. Smith
                              RKS Reference
                       28 Threads, 114440 MiB Core
         ---------------------------------------------------------

  ==> Geometry <==

    Molecular point group: d2h
    Full point group: D_inf_h

    Geometry (in Angstrom), charge = 0, multiplicity = 1:

       Center              X                  Y                   Z               Mass       
    ------------   -----------------  -----------------  -----------------  -----------------
         AU           0.000000000000     0.000000000000     1.233536316868   196.966568790000
         AU           0.000000000000     0.000000000000    -1.233536316868   196.966568790000

  Running in d2h symmetry.

  Rotational constants: A = ************  B =      0.02812  C =      0.02812 [cm^-1]
  Rotational constants: A = ************  B =    843.12274  C =    843.12274 [MHz]
  Nuclear repulsion =   77.433055857211272

  Charge       = 0
  Multiplicity = 1
  Electrons    = 38
  Nalpha       = 19
  Nbeta        = 19

  ==> Algorithm <==

  SCF Algorithm Type is DF.
  DIIS enabled.
  MOM disabled.
  Fractional occupation disabled.
  Guess Type is READ.
  Energy threshold   = 1.00e-08
  Density threshold  = 1.00e-08
  Integral threshold = 1.00e-12

  ==> Primary Basis <==

  Basis Set: DEF2-TZVPPD
    Blend: DEF2-TZVPPD
    Number of shells: 34
    Number of basis functions: 118
    Number of Cartesian functions: 148
    Spherical Harmonics?: true
    Max angular momentum: 4

  Core potential: DEF2-TZVPPD
    Number of shells: 8
    Number of ECP primitives: 28
    Number of ECP core electrons: 120
    Max angular momentum: 3

  ==> DFT Potential <==

   => Composite Functional: SCAN-D3BJ <= 

    SCAN Meta-GGA XC Functional
(10.1103/PhysRevLett.115.036402)
    J. Sun, A. Ruzsinszky, J. P. Perdew  Phys. Rev. Lett. 115, 036402, 2015


    Deriv               =              1
    GGA                 =           TRUE
    Meta                =           TRUE

    Exchange Hybrid     =          FALSE
    MP2 Hybrid          =          FALSE

   => Exchange Functionals <=

    1.0000   XC_MGGA_X_SCAN

   => Correlation Functionals <=

    1.0000   XC_MGGA_C_SCAN

   => LibXC Density Thresholds  <==

    XC_MGGA_C_SCAN:  1.00E-15 
    XC_MGGA_X_SCAN:  1.00E-15 

   => Molecular Quadrature <=

    Radial Scheme          =       TREUTLER
    Pruning Scheme         =           NONE
    Nuclear Scheme         =       TREUTLER

    BS radius alpha        =              1
    Pruning alpha          =              1
    Radial Points          =             75
    Spherical Points       =            302
    Total Points           =          42538
    Total Blocks           =            416
    Max Points             =            255
    Max Functions          =            116
    Weights Tolerance      =       1.00E-15

   => Loading Basis Set <=

    Name: (DEF2-TZVPPD AUX)
    Role: JKFIT
    Keyword: DF_BASIS_SCF
    atoms 1-2 entry AU         line  8426 file /mnt/storage/home/zw18965/.conda/envs/p4env/share/psi4/basis/def2-universal-jkfit.gbs 

   => Loading Basis Set <=

    Name: DEF2-TZVPPD
    Role: ORBITAL
    Keyword: BASIS
    atoms 1-2 entry AU         line  2995 (ECP: line  4084) file /mnt/storage/home/zw18965/.conda/envs/p4env/share/psi4/basis/def2-tzvppd.gbs 

    !!!  WARNING: ECP capability is in beta. Please check occupations closely.  !!!

  Reading orbitals from file /tmp/Au02N0.default.22633.180.npy, no projection.

  ==> Integral Setup <==

  DFHelper Memory: AOs need 0.060 GiB; user supplied 83.523 GiB. Using in-core AOs.

  ==> MemDFJK: Density-Fitted J/K Matrices <==

    J tasked:                   Yes
    K tasked:                    No
    wK tasked:                   No
    OpenMP threads:              28
    Memory [MiB]:             85527
    Algorithm:                 Core
    Schwarz Cutoff:           1E-12
    Mask sparsity (%):       0.3735
    Fitting Condition:        1E-10

   => Auxiliary Basis Set <=

  Basis Set: (DEF2-TZVPPD AUX)
    Blend: DEF2-UNIVERSAL-JKFIT
    Number of shells: 102
    Number of basis functions: 494
    Number of Cartesian functions: 730
    Spherical Harmonics?: true
    Max angular momentum: 6

  Cached 100.0% of DFT collocation blocks in 0.296 [GiB].

  Minimum eigenvalue in the overlap matrix is 3.6177768293E-03.
  Reciprocal condition number of the overlap matrix is 8.6418529986E-04.
    Using symmetric orthogonalization.

  ==> Pre-Iterations <==

  SCF Guess: Orbitals guess was supplied from a previous computation.

   -------------------------------------------------------
    Irrep   Nso     Nmo     Nalpha   Nbeta   Ndocc  Nsocc
   -------------------------------------------------------
     Ag        24      24       5       5       5       0
     B1g        7       7       1       1       1       0
     B2g       14      14       2       2       2       0
     B3g       14      14       2       2       2       0
     Au         7       7       1       1       1       0
     B1u       24      24       4       4       4       0
     B2u       14      14       2       2       2       0
     B3u       14      14       2       2       2       0
   -------------------------------------------------------
    Total     118     118      19      19      19       0
   -------------------------------------------------------

  ==> Iterations <==

                           Total Energy        Delta E     RMS |[F,P]|

   @DF-RKS iter   0:  -271.56346535473529   -2.71563e+02   2.49513e-04 
   @DF-RKS iter   1:  -271.56451887124757   -1.05352e-03   3.22387e-05 DIIS
   @DF-RKS iter   2:  -271.56451729058762    1.58066e-06   5.83777e-05 DIIS
   @DF-RKS iter   3:  -271.56451971717144   -2.42658e-06   2.41324e-06 DIIS
   @DF-RKS iter   4:  -271.56451972123932   -4.06789e-09   2.75385e-07 DIIS
   @DF-RKS iter   5:  -271.56451972130412   -6.48015e-11   9.47872e-08 DIIS
   @DF-RKS iter   6:  -271.56451972131111   -6.99174e-12   2.95861e-08 DIIS
   @DF-RKS iter   7:  -271.56451972131134   -2.27374e-13   8.92288e-09 DIIS
  Energy and wave function converged.


  ==> Post-Iterations <==

   Electrons on quadrature grid:
      Ntotal   =   38.0000025074 ; deviation = 2.507e-06 

    Orbital Energies [Eh]
    ---------------------

    Doubly Occupied:                                                      

       1Ag    -4.102606     1B1u   -4.101797     2Ag    -2.297519  
       2B1u   -2.284825     1B2u   -2.279394     1B3u   -2.279394  
       1B3g   -2.278143     1B2g   -2.278143     3Ag    -0.353459  
       2B3u   -0.307739     2B2u   -0.307739     4Ag    -0.267413  
       1B1g   -0.267347     3B1u   -0.253527     1Au    -0.253460  
       5Ag    -0.247503     2B2g   -0.241598     2B3g   -0.241598  
       4B1u   -0.238089  

    Virtual:                                                              

       5B1u   -0.154102     3B2u   -0.035958     3B3u   -0.035958  
       6Ag    -0.016342     3B2g    0.041079     3B3g    0.041079  
       6B1u    0.079708     7Ag     0.151432     8Ag     0.174911  
       4B3u    0.175644     4B2u    0.175644     4B2g    0.226178  
       4B3g    0.226178     7B1u    0.230866     9Ag     0.283897  
       2B1g    0.283904     8B1u    0.329182     5B2u    0.340378  
       5B3u    0.340378     9B1u    0.366675     2Au     0.366682  
       5B2g    0.453698     5B3g    0.453698    10Ag     0.455367  
      10B1u    0.595500    11Ag     0.838226     6B2u    0.930631  
       6B3u    0.930631    12Ag     1.039237     3B1g    1.039296  
      11B1u    1.074258     7B2u    1.079543     7B3u    1.079543  
       6B3g    1.087541     6B2g    1.087541     8B3u    1.110992  
       8B2u    1.110992     7B2g    1.132495     7B3g    1.132495  
      12B1u    1.201539     3Au     1.201604    13Ag     1.327584  
      13B1u    1.360507     8B3g    1.374296     8B2g    1.374296  
       9B3u    1.434369     9B2u    1.434369     4B1g    1.447343  
      14Ag     1.447350     4Au     1.504330    14B1u    1.504344  
      15Ag     1.505336     9B3g    1.683474     9B2g    1.683474  
      15B1u    2.032463    16Ag     2.127673    16B1u    2.619238  
      17Ag     3.518877    10B2u    3.518969    10B3u    3.518969  
       5B1g    3.519021    11B3u    3.574626    11B2u    3.574626  
      10B2g    3.594689    10B3g    3.594689    17B1u    3.663502  
       5Au     3.663658    18Ag     3.749874    11B3g    3.816593  
      11B2g    3.816593    18B1u    3.899166    19Ag     4.115903  
      12B3u    4.134812    12B2u    4.134812     6B1g    4.147524  
      20Ag     4.147706    13B2u    4.159313    13B3u    4.159313  
      12B3g    4.161477    12B2g    4.161477    21Ag     4.167665  
      19B1u    4.167768     6Au     4.168054     7B1g    4.168158  
      20B1u    4.168259     7Au     4.168260    13B2g    4.285632  
      13B3g    4.285632    21B1u    4.582360    14B2u   27.354523  
      14B3u   27.354523    22Ag    27.567607    14B3g   27.815771  
      14B2g   27.815771    22B1u   30.683460    23Ag    44.108012  
      23B1u   44.576727    24Ag   205.189167    24B1u  205.391076  

    Final Occupation by Irrep:
             Ag   B1g   B2g   B3g    Au   B1u   B2u   B3u 
    DOCC [     5,    1,    2,    2,    1,    4,    2,    2 ]

  @DF-RKS Final Energy:  -271.56451972131134

   => Energetics <=

    Nuclear Repulsion Energy =             77.4330558572112722
    One-Electron Energy =                -632.1152158655875155
    Two-Electron Energy =                 308.8650886564250300
    DFT Exchange-Correlation Energy =     -25.7472424793600645
    Empirical Dispersion Energy =          -0.0002058900000000
    VV10 Nonlocal Energy =                  0.0000000000000000
    Total Energy =                       -271.5645197213113420

Computation Completed


Properties will be evaluated at   0.000000,   0.000000,   0.000000 [a0]

Properties computed using the SCF density matrix

  Nuclear Dipole Moment: [e a0]
     X:     0.0000      Y:     0.0000      Z:    -0.0000

  Electronic Dipole Moment: [e a0]
     X:     0.0000      Y:     0.0000      Z:     0.0000

  Dipole Moment: [e a0]
     X:     0.0000      Y:     0.0000      Z:    -0.0000     Total:     0.0000

  Dipole Moment: [D]
     X:     0.0000      Y:     0.0000      Z:    -0.0000     Total:     0.0000


*** tstop() called on compute286.bc4.acrc.priv at Fri Nov  5 08:59:00 2021
Module time:
	user time   =      43.53 seconds =       0.73 minutes
	system time =       1.34 seconds =       0.02 minutes
	total time  =          4 seconds =       0.07 minutes
Total time:
	user time   =     938.29 seconds =      15.64 minutes
	system time =      20.58 seconds =       0.34 minutes
	total time  =        157 seconds =       2.62 minutes

*** tstart() called on compute286.bc4.acrc.priv
*** at Fri Nov  5 08:59:00 2021


         ------------------------------------------------------------
                                   SCF GRAD                          
                          Rob Parrish, Justin Turney,                
                       Andy Simmonett, and Alex Sokolov              
         ------------------------------------------------------------

  ==> Geometry <==

    Molecular point group: d2h
    Full point group: D_inf_h

    Geometry (in Angstrom), charge = 0, multiplicity = 1:

       Center              X                  Y                   Z               Mass       
    ------------   -----------------  -----------------  -----------------  -----------------
         AU           0.000000000000     0.000000000000     1.233536316868   196.966568790000
         AU           0.000000000000     0.000000000000    -1.233536316868   196.966568790000

  Nuclear repulsion =   77.433055857211272

  ==> Basis Set <==

  Basis Set: DEF2-TZVPPD
    Blend: DEF2-TZVPPD
    Number of shells: 34
    Number of basis functions: 118
    Number of Cartesian functions: 148
    Spherical Harmonics?: true
    Max angular momentum: 4

  Core potential: DEF2-TZVPPD
    Number of shells: 8
    Number of ECP primitives: 28
    Number of ECP core electrons: 120
    Max angular momentum: 3

  ==> DFJKGrad: Density-Fitted SCF Gradients <==

    Gradient:                    1
    J tasked:                  Yes
    K tasked:                   No
    wK tasked:                  No
    OpenMP threads:             28
    Integrals threads:          28
    Memory [MiB]:            85830
    Schwarz Cutoff:          1E-12
    Fitting Condition:       1E-10

   => Auxiliary Basis Set <=

  Basis Set: (DEF2-TZVPPD AUX)
    Blend: DEF2-UNIVERSAL-JKFIT
    Number of shells: 102
    Number of basis functions: 494
    Number of Cartesian functions: 730
    Spherical Harmonics?: true
    Max angular momentum: 6

  ==> DFT Potential <==

   => Composite Functional: SCAN-D3BJ <= 

    SCAN Meta-GGA XC Functional
(10.1103/PhysRevLett.115.036402)
    J. Sun, A. Ruzsinszky, J. P. Perdew  Phys. Rev. Lett. 115, 036402, 2015


    Deriv               =              1
    GGA                 =           TRUE
    Meta                =           TRUE

    Exchange Hybrid     =          FALSE
    MP2 Hybrid          =          FALSE

   => Exchange Functionals <=

    1.0000   XC_MGGA_X_SCAN

   => Correlation Functionals <=

    1.0000   XC_MGGA_C_SCAN

   => LibXC Density Thresholds  <==

    XC_MGGA_C_SCAN:  1.00E-15 
    XC_MGGA_X_SCAN:  1.00E-15 

   => Molecular Quadrature <=

    Radial Scheme          =       TREUTLER
    Pruning Scheme         =           NONE
    Nuclear Scheme         =       TREUTLER

    BS radius alpha        =              1
    Pruning alpha          =              1
    Radial Points          =             75
    Spherical Points       =            302
    Total Points           =          42538
    Total Blocks           =            416
    Max Points             =            255
    Max Functions          =            116
    Weights Tolerance      =       1.00E-15


  -Total Gradient:
     Atom            X                  Y                   Z
    ------   -----------------  -----------------  -----------------
       1        0.000000000000     0.000000000000    -0.100554177072
       2        0.000000000000     0.000000000000     0.100554177072


*** tstop() called on compute286.bc4.acrc.priv at Fri Nov  5 08:59:06 2021
Module time:
	user time   =      39.77 seconds =       0.66 minutes
	system time =       1.47 seconds =       0.02 minutes
	total time  =          6 seconds =       0.10 minutes
Total time:
	user time   =     980.74 seconds =      16.35 minutes
	system time =      22.17 seconds =       0.37 minutes
	total time  =        163 seconds =       2.72 minutes


  ==> Adding ECP gradient terms (computed numerically) <==

  -ECP Gradient:
     Atom            X                  Y                   Z
    ------   -----------------  -----------------  -----------------
       1        0.000000000000     0.000000000000     0.100582383581
       2        0.000000000000     0.000000000000    -0.100582383581


  -Total Gradient:
     Atom            X                  Y                   Z
    ------   -----------------  -----------------  -----------------
       1        0.000000000000     0.000000000000     0.000028206508
       2        0.000000000000     0.000000000000    -0.000028206508


			-----------------------------------------
			 OPTKING 2.0: for geometry optimizations 
			  - R.A. King,  Bethel University        
			-----------------------------------------
	At level 1: Red. Int., RFO, no backsteps, dynamic trust

	Previous internal coordinate definitions found.
	---Fragment 1 Geometry and Gradient---
	 AU          0.0000000000        0.0000000000        2.3310458047
	 AU          0.0000000000        0.0000000000       -2.3310458047
	             0.0000000000        0.0000000000        0.0000282065
	             0.0000000000        0.0000000000       -0.0000282065

	---Fragment 1 Intrafragment Coordinates---
	 - Coordinate -           - BOHR/RAD -       - ANG/DEG -
	 R(1,2)           =         4.662092	       2.467073

	Current energy   :      -271.5645197213

	Energy change for the previous step:
		Projected    :         0.0000263318
		Actual       :        -0.0000192300

	Performing BFGS update.
	Previous computed or guess Hessian on step 1.
	Steps to be used in Hessian update: 2 1
	Taking RFO optimization step.
	Going to follow RFO solution 1.
	Using RFO vector 1.
	Norm of target step-size    0.00021
	Projected energy change by RFO approximation:         0.0000000169

	Back-transformation to cartesian coordinates...
	Successfully converged to displaced geometry.

	--- Internal Coordinate Step in ANG or DEG, aJ/ANG or AJ/DEG ---
	 ---------------------------------------------------------------------------
	   Coordinate                Previous        Force       Change         New 
	   ----------                --------       ------       ------       ------
	    1 R(1,2)          =      2.467073    -0.000232    -0.000113     2.466959
	 ---------------------------------------------------------------------------
	Successfully symmetrized geometry.

  ==> Convergence Check <==

  Measures of convergence in internal coordinates in au.
  Criteria marked as inactive (o), active & met (*), and active & unmet ( ).
  ---------------------------------------------------------------------------------------------
   Step     Total Energy     Delta E     MAX Force     RMS Force      MAX Disp      RMS Disp   
  ---------------------------------------------------------------------------------------------
    Convergence Criteria    1.00e-06 *    3.00e-04 *             o    1.20e-03 *             o
  ---------------------------------------------------------------------------------------------
      3    -271.56451972   -1.92e-05      2.82e-05 *    2.82e-05 o    2.14e-04 *    2.14e-04 o  ~
  ---------------------------------------------------------------------------------------------


  **** Optimization is complete! (in 3 steps) ****

  ==> Optimization Summary <==

  Measures of convergence in internal coordinates in au.
  --------------------------------------------------------------------------------------------------------------- ~
   Step         Total Energy             Delta E       MAX Force       RMS Force        MAX Disp        RMS Disp  ~
  --------------------------------------------------------------------------------------------------------------- ~
      1    -271.564523842158   -271.564523842158      0.00301885      0.00301885      0.03116558      0.03116558  ~
      2    -271.564500491329      0.000023350829      0.00112696      0.00112696      0.00847117      0.00847117  ~
      3    -271.564519721311     -0.000019229982      0.00002821      0.00002821      0.00021404      0.00021404  ~
  --------------------------------------------------------------------------------------------------------------- ~

	Writing optimization data to binary file.
	Final energy is   -271.5645197213113
	Final (previous) structure:
	Cartesian Geometry (in Angstrom)
	   AU     0.0000000000   0.0000000000   1.2335363120
	   AU     0.0000000000   0.0000000000  -1.2335363120
	Saving final (previous) structure.
	Cleaning optimization helper files.
			--------------------------
			 OPTKING Finished Execution 
			--------------------------

    Final optimized geometry and variables:
    Molecular point group: d2h
    Full point group: D_inf_h

    Geometry (in Angstrom), charge = 0, multiplicity = 1:

    AU           0.000000000000     0.000000000000     1.233536316868
    AU           0.000000000000     0.000000000000    -1.233536316868

	Removing binary optimization data file.
	Cleaning optimization helper files.

Scratch directory: /tmp/
gradient() will perform analytic gradient computation.

*** tstart() called on compute286.bc4.acrc.priv
*** at Fri Nov  5 09:00:10 2021

   => Loading Basis Set <=

    Name: DEF2-TZVPPD
    Role: ORBITAL
    Keyword: BASIS
    atoms 1-2 entry AU         line  2995 (ECP: line  4084) file /mnt/storage/home/zw18965/.conda/envs/p4env/share/psi4/basis/def2-tzvppd.gbs 

    !!!  WARNING: ECP capability is in beta. Please check occupations closely.  !!!

   => SCAN-D3(BJ): Empirical Dispersion <=

    Grimme's -D3 (BJ-damping) Dispersion Correction
    Grimme S.; Ehrlich S.; Goerigk L. (2011), J. Comput. Chem., 32: 1456
    Parametrisation from:    J.G. Brandenburg, J. E. Bates, J. Sun, J.P. Perdew, Phys. Rev. B 94, 115144, 2016

        s6 =       1.000000
        s8 =       0.000000
        a1 =       0.538000
        a2 =       5.420000


         ---------------------------------------------------------
                                   SCF
               by Justin Turney, Rob Parrish, Andy Simmonett
                          and Daniel G. A. Smith
                              RKS Reference
                       28 Threads, 114440 MiB Core
         ---------------------------------------------------------

  ==> Geometry <==

    Molecular point group: d2h
    Full point group: D_inf_h

    Geometry (in Angstrom), charge = 0, multiplicity = 1:

       Center              X                  Y                   Z               Mass       
    ------------   -----------------  -----------------  -----------------  -----------------
         AU           0.000000000000     0.000000000000     1.233536316868   196.966568790000
         AU           0.000000000000     0.000000000000    -1.233536316868   196.966568790000

  Running in d2h symmetry.

  Rotational constants: A = ************  B =      0.02812  C =      0.02812 [cm^-1]
  Rotational constants: A = ************  B =    843.12274  C =    843.12274 [MHz]
  Nuclear repulsion =   77.433055857211272

  Charge       = 0
  Multiplicity = 1
  Electrons    = 38
  Nalpha       = 19
  Nbeta        = 19

  ==> Algorithm <==

  SCF Algorithm Type is DF.
  DIIS enabled.
  MOM disabled.
  Fractional occupation disabled.
  Guess Type is SAD.
  Energy threshold   = 1.00e-08
  Density threshold  = 1.00e-08
  Integral threshold = 1.00e-12

  ==> Primary Basis <==

  Basis Set: DEF2-TZVPPD
    Blend: DEF2-TZVPPD
    Number of shells: 34
    Number of basis functions: 118
    Number of Cartesian functions: 148
    Spherical Harmonics?: true
    Max angular momentum: 4

  Core potential: DEF2-TZVPPD
    Number of shells: 8
    Number of ECP primitives: 28
    Number of ECP core electrons: 120
    Max angular momentum: 3

  ==> DFT Potential <==

   => Composite Functional: SCAN-D3BJ <= 

    SCAN Meta-GGA XC Functional
(10.1103/PhysRevLett.115.036402)
    J. Sun, A. Ruzsinszky, J. P. Perdew  Phys. Rev. Lett. 115, 036402, 2015


    Deriv               =              1
    GGA                 =           TRUE
    Meta                =           TRUE

    Exchange Hybrid     =          FALSE
    MP2 Hybrid          =          FALSE

   => Exchange Functionals <=

    1.0000   XC_MGGA_X_SCAN

   => Correlation Functionals <=

    1.0000   XC_MGGA_C_SCAN

   => LibXC Density Thresholds  <==

    XC_MGGA_C_SCAN:  1.00E-15 
    XC_MGGA_X_SCAN:  1.00E-15 

   => Molecular Quadrature <=

    Radial Scheme          =       TREUTLER
    Pruning Scheme         =           NONE
    Nuclear Scheme         =       TREUTLER

    BS radius alpha        =              1
    Pruning alpha          =              1
    Radial Points          =             75
    Spherical Points       =            302
    Total Points           =          42538
    Total Blocks           =            416
    Max Points             =            255
    Max Functions          =            116
    Weights Tolerance      =       1.00E-15

   => Loading Basis Set <=

    Name: (DEF2-TZVPPD AUX)
    Role: JKFIT
    Keyword: DF_BASIS_SCF
    atoms 1-2 entry AU         line  8426 file /mnt/storage/home/zw18965/.conda/envs/p4env/share/psi4/basis/def2-universal-jkfit.gbs 

  ==> Integral Setup <==

  DFHelper Memory: AOs need 0.060 GiB; user supplied 83.523 GiB. Using in-core AOs.

  ==> MemDFJK: Density-Fitted J/K Matrices <==

    J tasked:                   Yes
    K tasked:                    No
    wK tasked:                   No
    OpenMP threads:              28
    Memory [MiB]:             85527
    Algorithm:                 Core
    Schwarz Cutoff:           1E-12
    Mask sparsity (%):       0.3735
    Fitting Condition:        1E-10

   => Auxiliary Basis Set <=

  Basis Set: (DEF2-TZVPPD AUX)
    Blend: DEF2-UNIVERSAL-JKFIT
    Number of shells: 102
    Number of basis functions: 494
    Number of Cartesian functions: 730
    Spherical Harmonics?: true
    Max angular momentum: 6

  Cached 100.0% of DFT collocation blocks in 0.296 [GiB].

  Minimum eigenvalue in the overlap matrix is 3.6177768293E-03.
  Reciprocal condition number of the overlap matrix is 8.6418529986E-04.
    Using symmetric orthogonalization.

  ==> Pre-Iterations <==

  SCF Guess: Superposition of Atomic Densities via on-the-fly atomic UHF (no occupation information).

   -------------------------
    Irrep   Nso     Nmo    
   -------------------------
     Ag        24      24 
     B1g        7       7 
     B2g       14      14 
     B3g       14      14 
     Au         7       7 
     B1u       24      24 
     B2u       14      14 
     B3u       14      14 
   -------------------------
    Total     118     118
   -------------------------

  ==> Iterations <==

                           Total Energy        Delta E     RMS |[F,P]|

   @DF-RKS iter SAD:  -271.02449770459242   -2.71024e+02   0.00000e+00 
   @DF-RKS iter   1:  -271.47802236839925   -4.53525e-01   1.03104e-02 DIIS
   @DF-RKS iter   2:  -271.10114105108806    3.76881e-01   2.44991e-02 DIIS
   @DF-RKS iter   3:  -271.56139197043933   -4.60251e-01   1.91110e-03 DIIS
   @DF-RKS iter   4:  -271.56375939375101   -2.36742e-03   1.04612e-03 DIIS
   @DF-RKS iter   5:  -271.56450054330497   -7.41150e-04   1.69453e-04 DIIS
   @DF-RKS iter   6:  -271.56451753457168   -1.69913e-05   5.18227e-05 DIIS
   @DF-RKS iter   7:  -271.56451966828956   -2.13372e-06   7.91810e-06 DIIS
   @DF-RKS iter   8:  -271.56451972061092   -5.23214e-08   7.91297e-07 DIIS
   @DF-RKS iter   9:  -271.56451972128855   -6.77630e-10   1.63182e-07 DIIS
   @DF-RKS iter  10:  -271.56451972131146   -2.29079e-11   6.79585e-09 DIIS
  Energy and wave function converged.


  ==> Post-Iterations <==

   Electrons on quadrature grid:
      Ntotal   =   38.0000025074 ; deviation = 2.507e-06 

    Orbital Energies [Eh]
    ---------------------

    Doubly Occupied:                                                      

       1Ag    -4.102606     1B1u   -4.101797     2Ag    -2.297519  
       2B1u   -2.284825     1B3u   -2.279394     1B2u   -2.279394  
       1B2g   -2.278143     1B3g   -2.278143     3Ag    -0.353459  
       2B3u   -0.307739     2B2u   -0.307739     4Ag    -0.267413  
       1B1g   -0.267347     3B1u   -0.253527     1Au    -0.253460  
       5Ag    -0.247503     2B2g   -0.241598     2B3g   -0.241598  
       4B1u   -0.238089  

    Virtual:                                                              

       5B1u   -0.154102     3B3u   -0.035958     3B2u   -0.035958  
       6Ag    -0.016342     3B2g    0.041079     3B3g    0.041079  
       6B1u    0.079708     7Ag     0.151432     8Ag     0.174911  
       4B3u    0.175644     4B2u    0.175644     4B2g    0.226178  
       4B3g    0.226178     7B1u    0.230866     9Ag     0.283897  
       2B1g    0.283904     8B1u    0.329182     5B3u    0.340378  
       5B2u    0.340378     9B1u    0.366675     2Au     0.366682  
       5B2g    0.453698     5B3g    0.453698    10Ag     0.455367  
      10B1u    0.595500    11Ag     0.838226     6B2u    0.930631  
       6B3u    0.930631    12Ag     1.039237     3B1g    1.039296  
      11B1u    1.074258     7B3u    1.079543     7B2u    1.079543  
       6B2g    1.087541     6B3g    1.087541     8B3u    1.110992  
       8B2u    1.110992     7B2g    1.132495     7B3g    1.132495  
      12B1u    1.201539     3Au     1.201604    13Ag     1.327584  
      13B1u    1.360507     8B2g    1.374296     8B3g    1.374296  
       9B2u    1.434369     9B3u    1.434369     4B1g    1.447343  
      14Ag     1.447350     4Au     1.504330    14B1u    1.504344  
      15Ag     1.505336     9B3g    1.683474     9B2g    1.683474  
      15B1u    2.032463    16Ag     2.127673    16B1u    2.619238  
      17Ag     3.518877    10B2u    3.518968    10B3u    3.518968  
       5B1g    3.519021    11B3u    3.574626    11B2u    3.574626  
      10B2g    3.594689    10B3g    3.594689    17B1u    3.663502  
       5Au     3.663658    18Ag     3.749874    11B3g    3.816593  
      11B2g    3.816593    18B1u    3.899166    19Ag     4.115903  
      12B3u    4.134812    12B2u    4.134812     6B1g    4.147524  
      20Ag     4.147706    13B2u    4.159313    13B3u    4.159313  
      12B3g    4.161477    12B2g    4.161477    21Ag     4.167665  
      19B1u    4.167768     6Au     4.168054     7B1g    4.168158  
      20B1u    4.168259     7Au     4.168260    13B2g    4.285632  
      13B3g    4.285632    21B1u    4.582360    14B2u   27.354523  
      14B3u   27.354523    22Ag    27.567607    14B3g   27.815771  
      14B2g   27.815771    22B1u   30.683460    23Ag    44.108012  
      23B1u   44.576727    24Ag   205.189167    24B1u  205.391076  

    Final Occupation by Irrep:
             Ag   B1g   B2g   B3g    Au   B1u   B2u   B3u 
    DOCC [     5,    1,    2,    2,    1,    4,    2,    2 ]

  @DF-RKS Final Energy:  -271.56451972131146

   => Energetics <=

    Nuclear Repulsion Energy =             77.4330558572112722
    One-Electron Energy =                -632.1152157326858969
    Two-Electron Energy =                 308.8650883783400332
    DFT Exchange-Correlation Energy =     -25.7472423341768248
    Empirical Dispersion Energy =          -0.0002058900000000
    VV10 Nonlocal Energy =                  0.0000000000000000
    Total Energy =                       -271.5645197213114557

Computation Completed


Properties will be evaluated at   0.000000,   0.000000,   0.000000 [a0]

Properties computed using the SCF density matrix

  Nuclear Dipole Moment: [e a0]
     X:     0.0000      Y:     0.0000      Z:    -0.0000

  Electronic Dipole Moment: [e a0]
     X:     0.0000      Y:     0.0000      Z:     0.0000

  Dipole Moment: [e a0]
     X:     0.0000      Y:     0.0000      Z:    -0.0000     Total:     0.0000

  Dipole Moment: [D]
     X:     0.0000      Y:     0.0000      Z:    -0.0000     Total:     0.0000


*** tstop() called on compute286.bc4.acrc.priv at Fri Nov  5 09:00:15 2021
Module time:
	user time   =      57.57 seconds =       0.96 minutes
	system time =       1.57 seconds =       0.03 minutes
	total time  =          5 seconds =       0.08 minutes
Total time:
	user time   =    1393.41 seconds =      23.22 minutes
	system time =      28.69 seconds =       0.48 minutes
	total time  =        232 seconds =       3.87 minutes

*** tstart() called on compute286.bc4.acrc.priv
*** at Fri Nov  5 09:00:15 2021


         ------------------------------------------------------------
                                   SCF GRAD                          
                          Rob Parrish, Justin Turney,                
                       Andy Simmonett, and Alex Sokolov              
         ------------------------------------------------------------

  ==> Geometry <==

    Molecular point group: d2h
    Full point group: D_inf_h

    Geometry (in Angstrom), charge = 0, multiplicity = 1:

       Center              X                  Y                   Z               Mass       
    ------------   -----------------  -----------------  -----------------  -----------------
         AU           0.000000000000     0.000000000000     1.233536316868   196.966568790000
         AU           0.000000000000     0.000000000000    -1.233536316868   196.966568790000

  Nuclear repulsion =   77.433055857211272

  ==> Basis Set <==

  Basis Set: DEF2-TZVPPD
    Blend: DEF2-TZVPPD
    Number of shells: 34
    Number of basis functions: 118
    Number of Cartesian functions: 148
    Spherical Harmonics?: true
    Max angular momentum: 4

  Core potential: DEF2-TZVPPD
    Number of shells: 8
    Number of ECP primitives: 28
    Number of ECP core electrons: 120
    Max angular momentum: 3

  ==> DFJKGrad: Density-Fitted SCF Gradients <==

    Gradient:                    1
    J tasked:                  Yes
    K tasked:                   No
    wK tasked:                  No
    OpenMP threads:             28
    Integrals threads:          28
    Memory [MiB]:            85830
    Schwarz Cutoff:          1E-12
    Fitting Condition:       1E-10

   => Auxiliary Basis Set <=

  Basis Set: (DEF2-TZVPPD AUX)
    Blend: DEF2-UNIVERSAL-JKFIT
    Number of shells: 102
    Number of basis functions: 494
    Number of Cartesian functions: 730
    Spherical Harmonics?: true
    Max angular momentum: 6

  ==> DFT Potential <==

   => Composite Functional: SCAN-D3BJ <= 

    SCAN Meta-GGA XC Functional
(10.1103/PhysRevLett.115.036402)
    J. Sun, A. Ruzsinszky, J. P. Perdew  Phys. Rev. Lett. 115, 036402, 2015


    Deriv               =              1
    GGA                 =           TRUE
    Meta                =           TRUE

    Exchange Hybrid     =          FALSE
    MP2 Hybrid          =          FALSE

   => Exchange Functionals <=

    1.0000   XC_MGGA_X_SCAN

   => Correlation Functionals <=

    1.0000   XC_MGGA_C_SCAN

   => LibXC Density Thresholds  <==

    XC_MGGA_C_SCAN:  1.00E-15 
    XC_MGGA_X_SCAN:  1.00E-15 

   => Molecular Quadrature <=

    Radial Scheme          =       TREUTLER
    Pruning Scheme         =           NONE
    Nuclear Scheme         =       TREUTLER

    BS radius alpha        =              1
    Pruning alpha          =              1
    Radial Points          =             75
    Spherical Points       =            302
    Total Points           =          42538
    Total Blocks           =            416
    Max Points             =            255
    Max Functions          =            116
    Weights Tolerance      =       1.00E-15


  -Total Gradient:
     Atom            X                  Y                   Z
    ------   -----------------  -----------------  -----------------
       1        0.000000000000     0.000000000000    -0.100554162776
       2       -0.000000000000     0.000000000000     0.100554162776


*** tstop() called on compute286.bc4.acrc.priv at Fri Nov  5 09:00:23 2021
Module time:
	user time   =      42.88 seconds =       0.71 minutes
	system time =       3.08 seconds =       0.05 minutes
	total time  =          8 seconds =       0.13 minutes
Total time:
	user time   =    1439.14 seconds =      23.99 minutes
	system time =      31.90 seconds =       0.53 minutes
	total time  =        240 seconds =       4.00 minutes


  ==> Adding ECP gradient terms (computed numerically) <==

  -ECP Gradient:
     Atom            X                  Y                   Z
    ------   -----------------  -----------------  -----------------
       1       -0.000000000000     0.000000000000     0.100582390849
       2       -0.000000000000     0.000000000000    -0.100582390849


  -Total Gradient:
     Atom            X                  Y                   Z
    ------   -----------------  -----------------  -----------------
       1       -0.000000000000     0.000000000000     0.000028228073
       2       -0.000000000000     0.000000000000    -0.000028228073


  Based on options and gradient (rms=1.63E-05), recommend projecting translations and projecting rotations.
hessian() will perform frequency computation by finite difference of analytic gradients.

         ----------------------------------------------------------
                                   FINDIF
                     R. A. King and Jonathon Misiewicz
         ---------------------------------------------------------

  Using finite-differences of gradients to determine vibrational frequencies and 
  normal modes. Resulting frequencies are only valid at stationary points.
    Generating geometries for use with 3-point formula.
    Displacement size will be 5.00e-03.
    Number of atoms is 2.
    Number of irreps is 8.
    Number of SALCs is 1.
    Translations projected? 1. Rotations projected? 1.
    Index of SALCs per irrep:
     1 :  0 
     2 : 
     3 : 
     4 : 
     5 : 
     6 : 
     7 : 
     8 : 
    Number of SALCs per irrep:
     Irrep 1: 1
     Irrep 2: 0
     Irrep 3: 0
     Irrep 4: 0
     Irrep 5: 0
     Irrep 6: 0
     Irrep 7: 0
     Irrep 8: 0
    Number of geometries (including reference) is 3.
    Number of displacements per irrep:
      Irrep 1: 2
      Irrep 2: 0
      Irrep 3: 0
      Irrep 4: 0
      Irrep 5: 0
      Irrep 6: 0
      Irrep 7: 0
      Irrep 8: 0

  //>>>>>>>>>>>>>>>>>>>>>>>>>>>>>>>>>>>//
  //    Loading displacement 1 of 3    //
  //<<<<<<<<<<<<<<<<<<<<<<<<<<<<<<<<<<<//

Scratch directory: /tmp/
gradient() will perform analytic gradient computation.

*** tstart() called on compute286.bc4.acrc.priv
*** at Fri Nov  5 09:01:26 2021

   => Loading Basis Set <=

    Name: DEF2-TZVPPD
    Role: ORBITAL
    Keyword: BASIS
    atoms 1-2 entry AU         line  2995 (ECP: line  4084) file /mnt/storage/home/zw18965/.conda/envs/p4env/share/psi4/basis/def2-tzvppd.gbs 

    !!!  WARNING: ECP capability is in beta. Please check occupations closely.  !!!

   => SCAN-D3(BJ): Empirical Dispersion <=

    Grimme's -D3 (BJ-damping) Dispersion Correction
    Grimme S.; Ehrlich S.; Goerigk L. (2011), J. Comput. Chem., 32: 1456
    Parametrisation from:    J.G. Brandenburg, J. E. Bates, J. Sun, J.P. Perdew, Phys. Rev. B 94, 115144, 2016

        s6 =       1.000000
        s8 =       0.000000
        a1 =       0.538000
        a2 =       5.420000


         ---------------------------------------------------------
                                   SCF
               by Justin Turney, Rob Parrish, Andy Simmonett
[...]

  ==> DFT Potential <==

   => Composite Functional: SCAN-D3BJ <= 

    SCAN Meta-GGA XC Functional
(10.1103/PhysRevLett.115.036402)
    J. Sun, A. Ruzsinszky, J. P. Perdew  Phys. Rev. Lett. 115, 036402, 2015


    Deriv               =              1
    GGA                 =           TRUE
    Meta                =           TRUE

    Exchange Hybrid     =          FALSE
    MP2 Hybrid          =          FALSE

   => Exchange Functionals <=

    1.0000   XC_MGGA_X_SCAN

   => Correlation Functionals <=

    1.0000   XC_MGGA_C_SCAN

   => LibXC Density Thresholds  <==

    XC_MGGA_C_SCAN:  1.00E-15 
    XC_MGGA_X_SCAN:  1.00E-15 

   => Molecular Quadrature <=

    Radial Scheme          =       TREUTLER
    Pruning Scheme         =           NONE
    Nuclear Scheme         =       TREUTLER

    BS radius alpha        =              1
    Pruning alpha          =              1
    Radial Points          =             75
    Spherical Points       =            302
    Total Points           =          42538
    Total Blocks           =            416
    Max Points             =            255
    Max Functions          =            116
    Weights Tolerance      =       1.00E-15

   => Loading Basis Set <=

    Name: (DEF2-TZVPPD AUX)
    Role: JKFIT
    Keyword: DF_BASIS_SCF
    atoms 1-2 entry AU         line  8426 file /mnt/storage/home/zw18965/.conda/envs/p4env/share/psi4/basis/def2-universal-jkfit.gbs 

  ==> Integral Setup <==

  DFHelper Memory: AOs need 0.060 GiB; user supplied 83.523 GiB. Using in-core AOs.

  ==> MemDFJK: Density-Fitted J/K Matrices <==

    J tasked:                   Yes
    K tasked:                    No
    wK tasked:                   No
    OpenMP threads:              28
    Memory [MiB]:             85527
    Algorithm:                 Core
    Schwarz Cutoff:           1E-12
    Mask sparsity (%):       0.3735
    Fitting Condition:        1E-10

   => Auxiliary Basis Set <=

  Basis Set: (DEF2-TZVPPD AUX)
    Blend: DEF2-UNIVERSAL-JKFIT
    Number of shells: 102
    Number of basis functions: 494
    Number of Cartesian functions: 730
    Spherical Harmonics?: true
    Max angular momentum: 6

  Cached 100.0% of DFT collocation blocks in 0.296 [GiB].

  Minimum eigenvalue in the overlap matrix is 3.6195895365E-03.
  Reciprocal condition number of the overlap matrix is 8.6465859669E-04.
    Using symmetric orthogonalization.

  ==> Pre-Iterations <==

  SCF Guess: Superposition of Atomic Densities via on-the-fly atomic UHF (no occupation information).

   -------------------------
    Irrep   Nso     Nmo    
   -------------------------
     Ag        24      24 
     B1g        7       7 
     B2g       14      14 
     B3g       14      14 
     Au         7       7 
     B1u       24      24 
     B2u       14      14 
     B3u       14      14 
   -------------------------
    Total     118     118
   -------------------------

  ==> Iterations <==

                           Total Energy        Delta E     RMS |[F,P]|

   @DF-RKS iter SAD:  -271.06429075725163   -2.71064e+02   0.00000e+00 
   @DF-RKS iter   1:  -271.48359747031589   -4.19307e-01   9.95192e-03 DIIS
   @DF-RKS iter   2:  -271.16088893957641    3.22709e-01   2.30643e-02 DIIS
   @DF-RKS iter   3:  -271.56164236714483   -4.00753e-01   1.83873e-03 DIIS
   @DF-RKS iter   4:  -271.56391327780818   -2.27091e-03   9.32513e-04 DIIS
   @DF-RKS iter   5:  -271.56450466494249   -5.91387e-04   1.53776e-04 DIIS
   @DF-RKS iter   6:  -271.56451864845781   -1.39835e-05   4.87720e-05 DIIS
   @DF-RKS iter   7:  -271.56452051049388   -1.86204e-06   7.29872e-06 DIIS
   @DF-RKS iter   8:  -271.56452055532463   -4.48308e-08   5.89735e-07 DIIS
   @DF-RKS iter   9:  -271.56452055570685   -3.82215e-10   1.54507e-07 DIIS
   @DF-RKS iter  10:  -271.56452055572771   -2.08615e-11   6.46104e-09 DIIS
  Energy and wave function converged.


  ==> Post-Iterations <==

   Electrons on quadrature grid:
      Ntotal   =   38.0000024885 ; deviation = 2.489e-06 

    Orbital Energies [Eh]
    ---------------------

    Doubly Occupied:                                                      

       1Ag    -4.102599     1B1u   -4.101791     2Ag    -2.297502  
       2B1u   -2.284822     1B3u   -2.279389     1B2u   -2.279389  
       1B2g   -2.278139     1B3g   -2.278139     3Ag    -0.353420  
       2B2u   -0.307711     2B3u   -0.307711     4Ag    -0.267406  
       1B1g   -0.267340     3B1u   -0.253528     1Au    -0.253462  
       5Ag    -0.247494     2B3g   -0.241607     2B2g   -0.241607  
       4B1u   -0.238098  

    Virtual:                                                              

       5B1u   -0.154114     3B2u   -0.035955     3B3u   -0.035955  
       6Ag    -0.016349     3B3g    0.041070     3B2g    0.041070  
       6B1u    0.079703     7Ag     0.151428     8Ag     0.174908  
       4B3u    0.175646     4B2u    0.175646     4B2g    0.226170  
       4B3g    0.226170     7B1u    0.230864     9Ag     0.283896  
       2B1g    0.283902     8B1u    0.329145     5B2u    0.340363  
       5B3u    0.340363     9B1u    0.366667     2Au     0.366675  
       5B3g    0.453690     5B2g    0.453690    10Ag     0.455364  
      10B1u    0.595458    11Ag     0.838223     6B2u    0.930688  
       6B3u    0.930688    12Ag     1.039286     3B1g    1.039345  
      11B1u    1.074257     7B2u    1.079513     7B3u    1.079513  
       6B3g    1.087525     6B2g    1.087525     8B3u    1.111003  
       8B2u    1.111003     7B2g    1.132487     7B3g    1.132487  
      12B1u    1.201488     3Au     1.201553    13Ag     1.327549  
      13B1u    1.360483     8B3g    1.374255     8B2g    1.374255  
       9B3u    1.434373     9B2u    1.434373     4B1g    1.447355  
      14Ag     1.447361     4Au     1.504317    14B1u    1.504331  
      15Ag     1.505296     9B2g    1.683342     9B3g    1.683342  
      15B1u    2.032206    16Ag     2.127608    16B1u    2.619101  
      17Ag     3.518910    10B3u    3.518920    10B2u    3.518920  
       5B1g    3.519055    11B3u    3.574638    11B2u    3.574638  
      10B2g    3.594684    10B3g    3.594684    17B1u    3.663465  
       5Au     3.663620    18Ag     3.749690    11B2g    3.816592  
      11B3g    3.816592    18B1u    3.899252    19Ag     4.115981  
      12B2u    4.134856    12B3u    4.134856     6B1g    4.147543  
      20Ag     4.147726    13B3u    4.159321    13B2u    4.159321  
      12B2g    4.161480    12B3g    4.161480    21Ag     4.167668  
      19B1u    4.167770     6Au     4.168032     7B1g    4.168161  
      20B1u    4.168238     7Au     4.168263    13B2g    4.285433  
      13B3g    4.285433    21B1u    4.582002    14B3u   27.354570  
      14B2u   27.354570    22Ag    27.567188    14B2g   27.815583  
      14B3g   27.815583    22B1u   30.681093    23Ag    44.107959  
      23B1u   44.576584    24Ag   205.189148    24B1u  205.391020  

    Final Occupation by Irrep:
             Ag   B1g   B2g   B3g    Au   B1u   B2u   B3u 
    DOCC [     5,    1,    2,    2,    1,    4,    2,    2 ]

  @DF-RKS Final Energy:  -271.56452055572771

   => Energetics <=

    Nuclear Repulsion Energy =             77.4246885174104591
    One-Electron Energy =                -632.0987808121323042
    Two-Electron Energy =                 308.8569771303197058
    DFT Exchange-Correlation Energy =     -25.7471995013255288
    Empirical Dispersion Energy =          -0.0002058900000000
    VV10 Nonlocal Energy =                  0.0000000000000000
    Total Energy =                       -271.5645205557277109

Computation Completed


Properties will be evaluated at   0.000000,   0.000000,   0.000000 [a0]

Properties computed using the SCF density matrix

  Nuclear Dipole Moment: [e a0]
     X:     0.0000      Y:     0.0000      Z:     0.0000

  Electronic Dipole Moment: [e a0]
     X:     0.0000      Y:     0.0000      Z:     0.0000

  Dipole Moment: [e a0]
     X:     0.0000      Y:     0.0000      Z:     0.0000     Total:     0.0000

  Dipole Moment: [D]
     X:     0.0000      Y:     0.0000      Z:     0.0000     Total:     0.0000


*** tstop() called on compute286.bc4.acrc.priv at Fri Nov  5 09:04:03 2021
Module time:
	user time   =      56.72 seconds =       0.95 minutes
	system time =       1.99 seconds =       0.03 minutes
	total time  =          5 seconds =       0.08 minutes
Total time:
	user time   =    2747.61 seconds =      45.79 minutes
	system time =      55.56 seconds =       0.93 minutes
	total time  =        460 seconds =       7.67 minutes

*** tstart() called on compute286.bc4.acrc.priv
*** at Fri Nov  5 09:04:04 2021


         ------------------------------------------------------------
                                   SCF GRAD                          
                          Rob Parrish, Justin Turney,                
                       Andy Simmonett, and Alex Sokolov              
         ------------------------------------------------------------

  ==> Geometry <==

    Molecular point group: d2h
    Full point group: D_inf_h

    Geometry (in Angstrom), charge = 0, multiplicity = 1:

       Center              X                  Y                   Z               Mass       
    ------------   -----------------  -----------------  -----------------  -----------------
         AU           0.000000000000     0.000000000000     1.233669625993   196.966568790000
         AU           0.000000000000     0.000000000000    -1.233669625993   196.966568790000

  Nuclear repulsion =   77.424688517410459

  ==> Basis Set <==

  Basis Set: DEF2-TZVPPD
    Blend: DEF2-TZVPPD
    Number of shells: 34
    Number of basis functions: 118
    Number of Cartesian functions: 148
    Spherical Harmonics?: true
    Max angular momentum: 4

  Core potential: DEF2-TZVPPD
    Number of shells: 8
    Number of ECP primitives: 28
    Number of ECP core electrons: 120
    Max angular momentum: 3

  ==> DFJKGrad: Density-Fitted SCF Gradients <==

    Gradient:                    1
    J tasked:                  Yes
    K tasked:                   No
    wK tasked:                  No
    OpenMP threads:             28
    Integrals threads:          28
    Memory [MiB]:            85830
    Schwarz Cutoff:          1E-12
    Fitting Condition:       1E-10

   => Auxiliary Basis Set <=

  Basis Set: (DEF2-TZVPPD AUX)
    Blend: DEF2-UNIVERSAL-JKFIT
    Number of shells: 102
    Number of basis functions: 494
    Number of Cartesian functions: 730
    Spherical Harmonics?: true
    Max angular momentum: 6

  ==> DFT Potential <==

   => Composite Functional: SCAN-D3BJ <= 

    SCAN Meta-GGA XC Functional
(10.1103/PhysRevLett.115.036402)
    J. Sun, A. Ruzsinszky, J. P. Perdew  Phys. Rev. Lett. 115, 036402, 2015


    Deriv               =              1
    GGA                 =           TRUE
    Meta                =           TRUE

    Exchange Hybrid     =          FALSE
    MP2 Hybrid          =          FALSE

   => Exchange Functionals <=

    1.0000   XC_MGGA_X_SCAN

   => Correlation Functionals <=

    1.0000   XC_MGGA_C_SCAN

   => LibXC Density Thresholds  <==

    XC_MGGA_C_SCAN:  1.00E-15 
    XC_MGGA_X_SCAN:  1.00E-15 

   => Molecular Quadrature <=

    Radial Scheme          =       TREUTLER
    Pruning Scheme         =           NONE
    Nuclear Scheme         =       TREUTLER

    BS radius alpha        =              1
    Pruning alpha          =              1
    Radial Points          =             75
    Spherical Points       =            302
    Total Points           =          42538
    Total Blocks           =            416
    Max Points             =            255
    Max Functions          =            116
    Weights Tolerance      =       1.00E-15


  -Total Gradient:
     Atom            X                  Y                   Z
    ------   -----------------  -----------------  -----------------
       1        0.000000000000     0.000000000000    -0.100458159242
       2        0.000000000000     0.000000000000     0.100458159242


*** tstop() called on compute286.bc4.acrc.priv at Fri Nov  5 09:04:10 2021
Module time:
	user time   =      39.10 seconds =       0.65 minutes
	system time =       1.57 seconds =       0.03 minutes
	total time  =          6 seconds =       0.10 minutes
Total time:
	user time   =    2789.70 seconds =      46.50 minutes
	system time =      57.28 seconds =       0.95 minutes
	total time  =        467 seconds =       7.78 minutes


  ==> Adding ECP gradient terms (computed numerically) <==

  -ECP Gradient:
     Atom            X                  Y                   Z
    ------   -----------------  -----------------  -----------------
       1       -0.000000000000     0.000000000000     0.100556766780
       2       -0.000000000000     0.000000000000    -0.100556766780


  -Total Gradient:
     Atom            X                  Y                   Z
    ------   -----------------  -----------------  -----------------
       1       -0.000000000000     0.000000000000     0.000098607538
       2       -0.000000000000     0.000000000000    -0.000098607538


         ----------------------------------------------------------
                                   FINDIF
                     R. A. King and Jonathon Misiewicz
         ---------------------------------------------------------

  Computing second-derivative from gradients using projected, 
  symmetry-adapted, cartesian coordinates.

  3 gradients passed in, including the reference geometry.
  Generating complete list of displacements from unique ones.


-------------------------------------------------------------


  ==> Harmonic Vibrational Analysis <==

  non-mass-weighted Hessian:       Symmetric? True   Hermitian? True   Lin Dep Dim?  5 (0)
  projection of translations (True) and rotations (True) removed 5 degrees of freedom (5)
  total projector:                 Symmetric? True   Hermitian? True   Lin Dep Dim?  5 (5)
  mass-weighted Hessian:           Symmetric? True   Hermitian? True   Lin Dep Dim?  5 (0)
  pre-proj  low-frequency mode:    0.0000  [cm^-1]
  pre-proj  low-frequency mode:    0.0000  [cm^-1]
  pre-proj  low-frequency mode:    0.0000  [cm^-1]
  pre-proj  low-frequency mode:    0.0000  [cm^-1]
  pre-proj  low-frequency mode:    0.0000  [cm^-1]
  pre-proj  all modes:['0.0000' '0.0000' '0.0000' '0.0000' '0.0000' '221.3836']
  projected mass-weighted Hessian: Symmetric? True   Hermitian? True   Lin Dep Dim?  5 (5)
  post-proj low-frequency mode:    0.0000  [cm^-1] (TR)
  post-proj low-frequency mode:    0.0000  [cm^-1] (TR)
  post-proj low-frequency mode:    0.0000  [cm^-1] (TR)
  post-proj low-frequency mode:    0.0000  [cm^-1] (TR)
  post-proj low-frequency mode:    0.0000  [cm^-1] (TR)
  post-proj  all modes:['0.0000' '0.0000' '0.0000' '0.0000' '0.0000' '221.3836']

  Vibration                       6           
  Freq [cm^-1]                 221.3836       
  Irrep                           Ag          
  Reduced mass [u]             196.9666       
  Force const [mDyne/A]         5.6877        
  Turning point v=0 [a0]        0.0525        
  RMS dev v=0 [a0 u^1/2]        0.5215        
  Char temp [K]                318.5217       
  ----------------------------------------------------------------------------------
      1   AU               0.00  0.00  0.71   
      2   AU               0.00  0.00 -0.71   

  ==> Thermochemistry Components <==

  Entropy, S
    Electronic S            0.000 [cal/(mol K)]        0.000 [J/(mol K)]       0.00000000 [mEh/K] (multiplicity = 1)
    Translational S        43.805 [cal/(mol K)]      183.279 [J/(mol K)]       0.06980725 [mEh/K] (mol. weight = 393.9331 [u], P = 101325.00 [Pa])
    Rotational S           18.306 [cal/(mol K)]       76.591 [J/(mol K)]       0.02917204 [mEh/K] (symmetry no. = 2)
    Vibrational S           1.948 [cal/(mol K)]        8.149 [J/(mol K)]       0.00310393 [mEh/K]
  Total S                  64.058 [cal/(mol K)]      268.019 [J/(mol K)]       0.10208321 [mEh/K]
  Correction S              0.000 [cal/(mol K)]        0.000 [J/(mol K)]       0.00000000 [mEh/K]

  Constant volume heat capacity, Cv
    Electronic Cv           0.000 [cal/(mol K)]        0.000 [J/(mol K)]       0.00000000 [mEh/K]
    Translational Cv        2.981 [cal/(mol K)]       12.472 [J/(mol K)]       0.00475022 [mEh/K]
    Rotational Cv           1.987 [cal/(mol K)]        8.314 [J/(mol K)]       0.00316681 [mEh/K]
    Vibrational Cv          1.809 [cal/(mol K)]        7.567 [J/(mol K)]       0.00288205 [mEh/K]
  Total Cv                  6.777 [cal/(mol K)]       28.353 [J/(mol K)]       0.01079908 [mEh/K]
  Correction Cv             0.000 [cal/(mol K)]        0.000 [J/(mol K)]       0.00000000 [mEh/K]

  Constant pressure heat capacity, Cp
    Electronic Cp           0.000 [cal/(mol K)]        0.000 [J/(mol K)]       0.00000000 [mEh/K]
    Translational Cp        4.968 [cal/(mol K)]       20.786 [J/(mol K)]       0.00791703 [mEh/K]
    Rotational Cp           1.987 [cal/(mol K)]        8.314 [J/(mol K)]       0.00316681 [mEh/K]
    Vibrational Cp          1.809 [cal/(mol K)]        7.567 [J/(mol K)]       0.00288205 [mEh/K]
  Total Cp                  8.764 [cal/(mol K)]       36.667 [J/(mol K)]       0.01396589 [mEh/K]
  Correction Cp             0.000 [cal/(mol K)]        0.000 [J/(mol K)]       0.00000000 [mEh/K]

  ==> Thermochemistry Energy Analysis <==

  Raw electronic energy, E0
  Total E0, Electronic energy at well bottom at 0 [K]                 -271.56451972 [Eh]

  Zero-point energy, ZPE_vib = Sum_i nu_i / 2
    Electronic ZPE          0.000 [kcal/mol]        0.000 [kJ/mol]       0.00000000 [Eh]
    Translational ZPE       0.000 [kcal/mol]        0.000 [kJ/mol]       0.00000000 [Eh]
    Rotational ZPE          0.000 [kcal/mol]        0.000 [kJ/mol]       0.00000000 [Eh]
    Vibrational ZPE         0.316 [kcal/mol]        1.324 [kJ/mol]       0.00050435 [Eh]         110.692 [cm^-1]
  Correction ZPE            0.316 [kcal/mol]        1.324 [kJ/mol]       0.00050435 [Eh]         110.692 [cm^-1]
  Total ZPE, Electronic energy at 0 [K]                               -271.56401537 [Eh]

  Thermal Energy, E (includes ZPE)
    Electronic E            0.000 [kcal/mol]        0.000 [kJ/mol]       0.00000000 [Eh]
    Translational E         0.889 [kcal/mol]        3.718 [kJ/mol]       0.00141628 [Eh]
    Rotational E            0.592 [kcal/mol]        2.479 [kJ/mol]       0.00094418 [Eh]
    Vibrational E           0.648 [kcal/mol]        2.710 [kJ/mol]       0.00103232 [Eh]
  Correction E              2.129 [kcal/mol]        8.908 [kJ/mol]       0.00339278 [Eh]
  Total E, Electronic energy at  298.15 [K]                           -271.56112694 [Eh]

  Enthalpy, H_trans = E_trans + k_B * T
    Electronic H            0.000 [kcal/mol]        0.000 [kJ/mol]       0.00000000 [Eh]
    Translational H         1.481 [kcal/mol]        6.197 [kJ/mol]       0.00236046 [Eh]
    Rotational H            0.592 [kcal/mol]        2.479 [kJ/mol]       0.00094418 [Eh]
    Vibrational H           0.648 [kcal/mol]        2.710 [kJ/mol]       0.00103232 [Eh]
  Correction H              2.721 [kcal/mol]       11.387 [kJ/mol]       0.00433697 [Eh]
  Total H, Enthalpy at  298.15 [K]                                    -271.56018275 [Eh]

  Gibbs free energy, G = H - T * S
    Electronic G            0.000 [kcal/mol]        0.000 [kJ/mol]       0.00000000 [Eh]
    Translational G       -11.579 [kcal/mol]      -48.447 [kJ/mol]      -0.01845257 [Eh]
    Rotational G           -4.865 [kcal/mol]      -20.357 [kJ/mol]      -0.00775346 [Eh]
    Vibrational G           0.067 [kcal/mol]        0.281 [kJ/mol]       0.00010689 [Eh]
  Correction G            -16.377 [kcal/mol]      -68.523 [kJ/mol]      -0.02609914 [Eh]
  Total G, Free enthalpy at  298.15 [K]                               -271.59061886 [Eh]

    Psi4 stopped on: Friday, 05 November 2021 09:05AM
    Psi4 wall time for execution: 0:08:49.94

*** Psi4 exiting successfully. Buy a developer a beer!
