
    -----------------------------------------------------------------------
          Psi4: An Open-Source Ab Initio Electronic Structure Package
                               Psi4 1.4.1 release

                         Git: Rev {HEAD} cd00f19 


    D. G. A. Smith, L. A. Burns, A. C. Simmonett, R. M. Parrish,
    M. C. Schieber, R. Galvelis, P. Kraus, H. Kruse, R. Di Remigio,
    A. Alenaizan, A. M. James, S. Lehtola, J. P. Misiewicz, M. Scheurer,
    R. A. Shaw, J. B. Schriber, Y. Xie, Z. L. Glick, D. A. Sirianni,
    J. S. O'Brien, J. M. Waldrop, A. Kumar, E. G. Hohenstein,
    B. P. Pritchard, B. R. Brooks, H. F. Schaefer III, A. Yu. Sokolov,
    K. Patkowski, A. E. DePrince III, U. Bozkaya, R. A. King,
    F. A. Evangelista, J. M. Turney, T. D. Crawford, C. D. Sherrill,
    J. Chem. Phys. 152(18) 184108 (2020). https://doi.org/10.1063/5.0006002

                            Additional Code Authors
    E. T. Seidl, C. L. Janssen, E. F. Valeev, M. L. Leininger,
    J. F. Gonthier, R. M. Richard, H. R. McAlexander, M. Saitow, X. Wang,
    P. Verma, and M. H. Lechner

             Previous Authors, Complete List of Code Contributors,
                       and Citations for Specific Modules
    https://github.com/psi4/psi4/blob/master/codemeta.json
    https://github.com/psi4/psi4/graphs/contributors
    http://psicode.org/psi4manual/master/introduction.html#citing-psifour

    -----------------------------------------------------------------------


    Psi4 started on: Friday, 05 November 2021 09:20AM

    Process ID: 23204
    Host:       compute286.bc4.acrc.priv
    PSIDATADIR: /mnt/storage/home/zw18965/.conda/envs/p4env/share/psi4
    Memory:     500.0 MiB
    Threads:    28
    
  ==> Input File <==

--------------------------------------------------------------------------
memory 120 GB

molecule {
1 1
Au       0.000000    0.000000    0.000000 
Au       0.000000    0.000000    2.576864 
Au       0.000000    0.000000   -2.576864 
 }

set dynamic_level 1
set basis Def2-TZVPPD

optimize("SCAN-D3BJ")
frequencies("SCAN-D3BJ")
--------------------------------------------------------------------------

  Memory set to 111.759 GiB by Python driver.

Scratch directory: /tmp/
gradient() will perform analytic gradient computation.

*** tstart() called on compute286.bc4.acrc.priv
*** at Fri Nov  5 09:20:06 2021

   => Loading Basis Set <=

    Name: DEF2-TZVPPD
    Role: ORBITAL
    Keyword: BASIS
    atoms 1-3 entry AU         line  2995 (ECP: line  4084) file /mnt/storage/home/zw18965/.conda/envs/p4env/share/psi4/basis/def2-tzvppd.gbs 

    !!!  WARNING: ECP capability is in beta. Please check occupations closely.  !!!

   => SCAN-D3(BJ): Empirical Dispersion <=

    Grimme's -D3 (BJ-damping) Dispersion Correction
    Grimme S.; Ehrlich S.; Goerigk L. (2011), J. Comput. Chem., 32: 1456
    Parametrisation from:    J.G. Brandenburg, J. E. Bates, J. Sun, J.P. Perdew, Phys. Rev. B 94, 115144, 2016

        s6 =       1.000000
        s8 =       0.000000
        a1 =       0.538000
        a2 =       5.420000


         ---------------------------------------------------------
                                   SCF
               by Justin Turney, Rob Parrish, Andy Simmonett
                          and Daniel G. A. Smith
                              RKS Reference
                       28 Threads, 114440 MiB Core
         ---------------------------------------------------------

  ==> Geometry <==

    Molecular point group: d2h
    Full point group: D_inf_h

    Geometry (in Angstrom), charge = 1, multiplicity = 1:

       Center              X                  Y                   Z               Mass       
    ------------   -----------------  -----------------  -----------------  -----------------
         AU           0.000000000000     0.000000000000     0.000000000000   196.966568790000
         AU           0.000000000000     0.000000000000     2.576864000000   196.966568790000
         AU           0.000000000000     0.000000000000    -2.576864000000   196.966568790000

  Running in d2h symmetry.

  Rotational constants: A = ************  B =      0.00644  C =      0.00644 [cm^-1]
  Rotational constants: A = ************  B =    193.20203  C =    193.20203 [MHz]
  Nuclear repulsion =  185.334745112537945

  Charge       = 1
  Multiplicity = 1
  Electrons    = 56
  Nalpha       = 28
  Nbeta        = 28

  ==> Algorithm <==

  SCF Algorithm Type is DF.
  DIIS enabled.
  MOM disabled.
  Fractional occupation disabled.
  Guess Type is SAD.
  Energy threshold   = 1.00e-08
  Density threshold  = 1.00e-08
  Integral threshold = 1.00e-12

  ==> Primary Basis <==

  Basis Set: DEF2-TZVPPD
    Blend: DEF2-TZVPPD
    Number of shells: 51
    Number of basis functions: 177
    Number of Cartesian functions: 222
    Spherical Harmonics?: true
    Max angular momentum: 4

  Core potential: DEF2-TZVPPD
    Number of shells: 12
    Number of ECP primitives: 42
    Number of ECP core electrons: 180
    Max angular momentum: 3

  ==> DFT Potential <==

   => Composite Functional: SCAN-D3BJ <= 

    SCAN Meta-GGA XC Functional
(10.1103/PhysRevLett.115.036402)
    J. Sun, A. Ruzsinszky, J. P. Perdew  Phys. Rev. Lett. 115, 036402, 2015


    Deriv               =              1
    GGA                 =           TRUE
    Meta                =           TRUE

    Exchange Hybrid     =          FALSE
    MP2 Hybrid          =          FALSE

   => Exchange Functionals <=

    1.0000   XC_MGGA_X_SCAN

   => Correlation Functionals <=

    1.0000   XC_MGGA_C_SCAN

   => LibXC Density Thresholds  <==

    XC_MGGA_C_SCAN:  1.00E-15 
    XC_MGGA_X_SCAN:  1.00E-15 

   => Molecular Quadrature <=

    Radial Scheme          =       TREUTLER
    Pruning Scheme         =           NONE
    Nuclear Scheme         =       TREUTLER

    BS radius alpha        =              1
    Pruning alpha          =              1
    Radial Points          =             75
    Spherical Points       =            302
    Total Points           =          63858
    Total Blocks           =            610
    Max Points             =            255
    Max Functions          =            164
    Weights Tolerance      =       1.00E-15

   => Loading Basis Set <=

    Name: (DEF2-TZVPPD AUX)
    Role: JKFIT
    Keyword: DF_BASIS_SCF
    atoms 1-3 entry AU         line  8426 file /mnt/storage/home/zw18965/.conda/envs/p4env/share/psi4/basis/def2-universal-jkfit.gbs 

  ==> Integral Setup <==

  DFHelper Memory: AOs need 0.178 GiB; user supplied 83.260 GiB. Using in-core AOs.

  ==> MemDFJK: Density-Fitted J/K Matrices <==

    J tasked:                   Yes
    K tasked:                    No
    wK tasked:                   No
    OpenMP threads:              28
    Memory [MiB]:             85258
    Algorithm:                 Core
    Schwarz Cutoff:           1E-12
    Mask sparsity (%):       8.4075
    Fitting Condition:        1E-10

   => Auxiliary Basis Set <=

  Basis Set: (DEF2-TZVPPD AUX)
    Blend: DEF2-UNIVERSAL-JKFIT
    Number of shells: 153
    Number of basis functions: 741
    Number of Cartesian functions: 1095
    Spherical Harmonics?: true
    Max angular momentum: 6

  Cached 100.0% of DFT collocation blocks in 0.559 [GiB].

  Minimum eigenvalue in the overlap matrix is 8.6730025425E-04.
  Reciprocal condition number of the overlap matrix is 1.9766333168E-04.
    Using symmetric orthogonalization.

  ==> Pre-Iterations <==

  SCF Guess: Superposition of Atomic Densities via on-the-fly atomic UHF (no occupation information).

   -------------------------
    Irrep   Nso     Nmo    
   -------------------------
     Ag        39      39 
     B1g       12      12 
     B2g       19      19 
     B3g       19      19 
     Au         9       9 
     B1u       33      33 
     B2u       23      23 
     B3u       23      23 
   -------------------------
    Total     177     177
   -------------------------

  ==> Iterations <==

                           Total Energy        Delta E     RMS |[F,P]|

   @DF-RKS iter SAD:  -406.57279621393218   -4.06573e+02   0.00000e+00 
    Occupation by irrep:
             Ag   B1g   B2g   B3g    Au   B1u   B2u   B3u 
    DOCC [     8,    1,    3,    3,    1,    6,    3,    3 ]

   @DF-RKS iter   1:  -406.96675274131997   -3.93957e-01   5.40464e-03 DIIS
    Occupation by irrep:
             Ag   B1g   B2g   B3g    Au   B1u   B2u   B3u 
    DOCC [     8,    2,    3,    3,    1,    5,    3,    3 ]

   @DF-RKS iter   2:  -405.26541343835555    1.70134e+00   2.56714e-02 DIIS
   @DF-RKS iter   3:  -406.98928183456746   -1.72387e+00   4.37514e-03 DIIS
   @DF-RKS iter   4:  -407.02346955851510   -3.41877e-02   9.89069e-04 DIIS
   @DF-RKS iter   5:  -407.02514975646920   -1.68020e-03   5.17230e-04 DIIS
   @DF-RKS iter   6:  -407.02557174570899   -4.21989e-04   1.29998e-04 DIIS
   @DF-RKS iter   7:  -407.02560061891614   -2.88732e-05   1.29105e-05 DIIS
   @DF-RKS iter   8:  -407.02560106638145   -4.47465e-07   1.71527e-06 DIIS
   @DF-RKS iter   9:  -407.02560107148594   -5.10448e-09   1.73545e-07 DIIS
   @DF-RKS iter  10:  -407.02560107153391   -4.79758e-11   1.58318e-08 DIIS
   @DF-RKS iter  11:  -407.02560107153471   -7.95808e-13   4.23468e-09 DIIS
  Energy and wave function converged.


  ==> Post-Iterations <==

   Electrons on quadrature grid:
      Ntotal   =   55.9999902595 ; deviation = -9.741e-06 

    Orbital Energies [Eh]
    ---------------------

    Doubly Occupied:                                                      

       1Ag    -4.311968     1B1u   -4.311964     2Ag    -4.277342  
       2B1u   -2.499793     3Ag    -2.498813     1B3u   -2.492826  
       1B2u   -2.492826     1B2g   -2.492819     1B3g   -2.492819  
       3B1u   -2.466819     2B3u   -2.452698     2B2u   -2.452698  
       4Ag    -0.561240     2B2g   -0.506077     2B3g   -0.506077  
       4B1u   -0.493181     3B3u   -0.484771     3B2u   -0.484771  
       5Ag    -0.476593     1B1g   -0.476518     5B1u   -0.475562  
       1Au    -0.475488     6Ag    -0.443137     7Ag    -0.430701  
       2B1g   -0.430613     3B2g   -0.425925     3B3g   -0.425925  
       8Ag    -0.414264  

    Virtual:                                                              

       6B1u   -0.410115     9Ag    -0.297033     4B3u   -0.207388  
       4B2u   -0.207388     7B1u   -0.187340     4B2g   -0.158463  
       4B3g   -0.158463     5B3u   -0.084403     5B2u   -0.084403  
      10Ag    -0.051406     8B1u   -0.024735    11Ag    -0.017007  
       6B3u    0.025274     6B2u    0.025274     9B1u    0.029565  
       5B2g    0.058436     5B3g    0.058436    12Ag     0.069593  
       7B3u    0.099794     7B2u    0.099794    13Ag     0.103929  
       3B1g    0.103930    14Ag     0.125944    10B1u    0.137276  
       2Au     0.137278     6B2g    0.160942     6B3g    0.160942  
      11B1u    0.174432    12B1u    0.226927    15Ag     0.229456  
       4B1g    0.229461     8B3u    0.260385     8B2u    0.260385  
      16Ag     0.350918     7B2g    0.383824     7B3g    0.383824  
      13B1u    0.415475    17Ag     0.489569    14B1u    0.627947  
       9B3u    0.731721     9B2u    0.731721    18Ag     0.826682  
      15B1u    0.837156     3Au     0.837222     8B2g    0.846476  
       8B3g    0.846476    10B3u    0.864769    10B2u    0.864769  
      11B3u    0.901839    11B2u    0.901839     9B2g    0.903939  
       9B3g    0.903939    19Ag     0.913833     5B1g    0.913901  
      12B3u    0.928661    12B2u    0.928661    13B2u    0.954035  
      13B3u    0.954035    16B1u    0.988849    17B1u    1.011241  
       4Au     1.011315    10B2g    1.040878    10B3g    1.040878  
      20Ag     1.055989    14B3u    1.187454    14B2u    1.187454  
      11B2g    1.223609    11B3g    1.223609    18B1u    1.229439  
       6B1g    1.253712    21Ag     1.253752    19B1u    1.258510  
       5Au     1.264978    20B1u    1.265013    22Ag     1.309563  
       7B1g    1.336926    23Ag     1.336985    15B3u    1.415802  
      15B2u    1.415802    12B2g    1.507646    12B3g    1.507646  
      21B1u    1.663336    24Ag     1.856391    25Ag     1.930253  
      22B1u    2.225593    26Ag     2.589109    16B3u    3.282625  
      16B2u    3.282625    23B1u    3.317331     6Au     3.317495  
      17B3u    3.372737    17B2u    3.372737    13B3g    3.375036  
      13B2g    3.375036    27Ag     3.379749     8B1g    3.379901  
      18B3u    3.414178    18B2u    3.414178    14B2g    3.443669  
      14B3g    3.443669    24B1u    3.480413     7Au     3.480589  
      25B1u    3.507092    28Ag     3.603328    19B3u    3.688317  
      19B2u    3.688317    26B1u    3.812814    15B2g    3.938847  
      15B3g    3.938847     9B1g    3.941380    29Ag     3.941521  
      30Ag     3.944377    16B3g    3.945116    16B2g    3.945116  
      20B2u    3.945180    20B3u    3.945180     8Au     3.945260  
      27B1u    3.945405    28B1u    3.947757    31Ag     3.947757  
      10B1g    3.948453     9Au     3.948453    11B1g    3.982422  
      32Ag     3.982562    17B2g    3.986315    17B3g    3.986315  
      33Ag     3.995752    12B1g    3.996720    21B3u    4.011688  
      21B2u    4.011688    18B2g    4.040443    18B3g    4.040443  
      34Ag     4.240973    29B1u    4.269982    22B3u   27.154101  
      22B2u   27.154101    19B2g   27.461195    19B3g   27.461195  
      23B3u   27.698302    23B2u   27.698302    30B1u   28.036880  
      35Ag    28.295374    31B1u   31.015681    36Ag    43.886681  
      32B1u   44.165214    37Ag    44.587945    38Ag   204.981202  
      33B1u  205.096965    39Ag   205.290792  

    Final Occupation by Irrep:
             Ag   B1g   B2g   B3g    Au   B1u   B2u   B3u 
    DOCC [     8,    2,    3,    3,    1,    5,    3,    3 ]

  @DF-RKS Final Energy:  -407.02560107153471

   => Energetics <=

    Nuclear Repulsion Energy =            185.3347451125379450
    One-Electron Energy =               -1075.1611706401338324
    Two-Electron Energy =                 521.2184421598027484
    DFT Exchange-Correlation Energy =     -38.4170737637415272
    Empirical Dispersion Energy =          -0.0005439400000000
    VV10 Nonlocal Energy =                  0.0000000000000000
    Total Energy =                       -407.0256010715347088

Computation Completed


Properties will be evaluated at   0.000000,   0.000000,   0.000000 [a0]

Properties computed using the SCF density matrix

  Nuclear Dipole Moment: [e a0]
     X:     0.0000      Y:     0.0000      Z:    -0.0000

  Electronic Dipole Moment: [e a0]
     X:     0.0000      Y:     0.0000      Z:     0.0000

  Dipole Moment: [e a0]
     X:     0.0000      Y:     0.0000      Z:    -0.0000     Total:     0.0000

  Dipole Moment: [D]
     X:     0.0000      Y:     0.0000      Z:    -0.0000     Total:     0.0000


*** tstop() called on compute286.bc4.acrc.priv at Fri Nov  5 09:20:17 2021
Module time:
	user time   =      99.02 seconds =       1.65 minutes
	system time =       4.21 seconds =       0.07 minutes
	total time  =         11 seconds =       0.18 minutes
Total time:
	user time   =      99.02 seconds =       1.65 minutes
	system time =       4.21 seconds =       0.07 minutes
	total time  =         11 seconds =       0.18 minutes

*** tstart() called on compute286.bc4.acrc.priv
*** at Fri Nov  5 09:20:17 2021


         ------------------------------------------------------------
                                   SCF GRAD                          
                          Rob Parrish, Justin Turney,                
                       Andy Simmonett, and Alex Sokolov              
         ------------------------------------------------------------

  ==> Geometry <==

    Molecular point group: d2h
    Full point group: D_inf_h

    Geometry (in Angstrom), charge = 1, multiplicity = 1:

       Center              X                  Y                   Z               Mass       
    ------------   -----------------  -----------------  -----------------  -----------------
         AU           0.000000000000     0.000000000000     0.000000000000   196.966568790000
         AU           0.000000000000     0.000000000000     2.576864000000   196.966568790000
         AU           0.000000000000     0.000000000000    -2.576864000000   196.966568790000

  Nuclear repulsion =  185.334745112537945

  ==> Basis Set <==

  Basis Set: DEF2-TZVPPD
    Blend: DEF2-TZVPPD
    Number of shells: 51
    Number of basis functions: 177
    Number of Cartesian functions: 222
    Spherical Harmonics?: true
    Max angular momentum: 4

  Core potential: DEF2-TZVPPD
    Number of shells: 12
    Number of ECP primitives: 42
    Number of ECP core electrons: 180
    Max angular momentum: 3

  ==> DFJKGrad: Density-Fitted SCF Gradients <==

    Gradient:                    1
    J tasked:                  Yes
    K tasked:                   No
    wK tasked:                  No
    OpenMP threads:             28
    Integrals threads:          28
    Memory [MiB]:            85830
    Schwarz Cutoff:          1E-12
    Fitting Condition:       1E-10

   => Auxiliary Basis Set <=

  Basis Set: (DEF2-TZVPPD AUX)
    Blend: DEF2-UNIVERSAL-JKFIT
    Number of shells: 153
    Number of basis functions: 741
    Number of Cartesian functions: 1095
    Spherical Harmonics?: true
    Max angular momentum: 6

  ==> DFT Potential <==

   => Composite Functional: SCAN-D3BJ <= 

    SCAN Meta-GGA XC Functional
(10.1103/PhysRevLett.115.036402)
    J. Sun, A. Ruzsinszky, J. P. Perdew  Phys. Rev. Lett. 115, 036402, 2015


    Deriv               =              1
    GGA                 =           TRUE
    Meta                =           TRUE

    Exchange Hybrid     =          FALSE
    MP2 Hybrid          =          FALSE

   => Exchange Functionals <=

    1.0000   XC_MGGA_X_SCAN

   => Correlation Functionals <=

    1.0000   XC_MGGA_C_SCAN

   => LibXC Density Thresholds  <==

    XC_MGGA_C_SCAN:  1.00E-15 
    XC_MGGA_X_SCAN:  1.00E-15 

   => Molecular Quadrature <=

    Radial Scheme          =       TREUTLER
    Pruning Scheme         =           NONE
    Nuclear Scheme         =       TREUTLER

    BS radius alpha        =              1
    Pruning alpha          =              1
    Radial Points          =             75
    Spherical Points       =            302
    Total Points           =          63858
    Total Blocks           =            610
    Max Points             =            255
    Max Functions          =            164
    Weights Tolerance      =       1.00E-15


  -Total Gradient:
     Atom            X                  Y                   Z
    ------   -----------------  -----------------  -----------------
       1        0.000000000000    -0.000000000000     0.000000000000
       2        0.000000000000    -0.000000000000    -0.045162568664
       3        0.000000000000    -0.000000000000     0.045162568664


*** tstop() called on compute286.bc4.acrc.priv at Fri Nov  5 09:20:28 2021
Module time:
	user time   =      56.29 seconds =       0.94 minutes
	system time =       3.09 seconds =       0.05 minutes
	total time  =         11 seconds =       0.18 minutes
Total time:
	user time   =     157.02 seconds =       2.62 minutes
	system time =       7.38 seconds =       0.12 minutes
	total time  =         22 seconds =       0.37 minutes


  ==> Adding ECP gradient terms (computed numerically) <==

  -ECP Gradient:
     Atom            X                  Y                   Z
    ------   -----------------  -----------------  -----------------
       1       -0.000000000000     0.000000000000     0.000000000000
       2        0.000000000000     0.000000000000     0.048592035959
       3       -0.000000000000     0.000000000000    -0.048592035959


  -Total Gradient:
     Atom            X                  Y                   Z
    ------   -----------------  -----------------  -----------------
       1       -0.000000000000    -0.000000000000     0.000000000000
       2        0.000000000000    -0.000000000000     0.003429467295
       3       -0.000000000000    -0.000000000000    -0.003429467295


			-----------------------------------------
			 OPTKING 2.0: for geometry optimizations 
			  - R.A. King,  Bethel University        
			-----------------------------------------
	At level 1: Red. Int., RFO, no backsteps, dynamic trust

	Internal coordinates to be generated automatically.
	Detected frag 1 with atoms:  1 2 3
	---Fragment 1 Bond Connectivity---
	 1 : 2 3
	 2 : 1
	 3 : 1

	---Fragment 1 Geometry and Gradient---
	 AU          0.0000000000        0.0000000000        0.0000000000
	 AU          0.0000000000        0.0000000000        4.8695672226
	 AU          0.0000000000        0.0000000000       -4.8695672226
	            -0.0000000000       -0.0000000000        0.0000000000
	             0.0000000000       -0.0000000000        0.0034294673
	            -0.0000000000       -0.0000000000       -0.0034294673

	Previous optimization step data not found.  Starting new optimization.

	---Fragment 1 Intrafragment Coordinates---
	 - Coordinate -           - BOHR/RAD -       - ANG/DEG -
	 R(1,2)           =         4.869567	       2.576864
	 R(1,3)           =         4.869567	       2.576864
	 L(2,1,3)         =         3.141593	     180.000000
	 l(2,1,3)         =         3.141593	     180.000000

	Current energy   :      -407.0256010715

	Generating empirical Hessian (Schlegel '84) for each fragment.
	Taking RFO optimization step.
	Going to follow RFO solution 1.
	Using RFO vector 1.
	Norm of target step-size    0.06127
	Projected energy change by RFO approximation:         0.0015740515

	Back-transformation to cartesian coordinates...
	Successfully converged to displaced geometry.

	--- Internal Coordinate Step in ANG or DEG, aJ/ANG or AJ/DEG ---
	 ---------------------------------------------------------------------------
	   Coordinate                Previous        Force       Change         New 
	   ----------                --------       ------       ------       ------
	    1 R(1,2)          =      2.576864    -0.028254    -0.022927     2.553937
	    2 R(1,3)          =      2.576864    -0.028254    -0.022927     2.553937
	    3 L(2,1,3)        =    180.000000     0.000000     0.000000   180.000000
	    4 l(2,1,3)        =    180.000000     0.000000     0.000000   180.000000
	 ---------------------------------------------------------------------------
	Successfully symmetrized geometry.

  ==> Convergence Check <==

  Measures of convergence in internal coordinates in au.
  Criteria marked as inactive (o), active & met (*), and active & unmet ( ).
  --------------------------------------------------------------------------------------------- ~
   Step     Total Energy     Delta E     MAX Force     RMS Force      MAX Disp      RMS Disp    ~
  --------------------------------------------------------------------------------------------- ~
    Convergence Criteria    1.00e-06 *    3.00e-04 *             o    1.20e-03 *             o  ~
  --------------------------------------------------------------------------------------------- ~
      1    -407.02560107   -4.07e+02      3.43e-03      2.42e-03 o    4.33e-02      3.06e-02 o  ~
  ---------------------------------------------------------------------------------------------

	Writing optimization data to binary file.
	Structure for next step:
	Cartesian Geometry (in Angstrom)
	   AU     0.0000000000   0.0000000000   0.0000000000
	   AU     0.0000000000   0.0000000000   2.5539369322
	   AU     0.0000000000   0.0000000000  -2.5539369322
			--------------------------
			 OPTKING Finished Execution 
			--------------------------

    Structure for next step:
    Molecular point group: d2h
    Full point group: D_inf_h

    Geometry (in Angstrom), charge = 1, multiplicity = 1:

    AU           0.000000000000     0.000000000000     0.000000000000
    AU           0.000000000000     0.000000000000     2.553936942221
    AU           0.000000000000     0.000000000000    -2.553936942221


Scratch directory: /tmp/
gradient() will perform analytic gradient computation.

*** tstart() called on compute286.bc4.acrc.priv
*** at Fri Nov  5 09:23:33 2021

   => Loading Basis Set <=

    Name: DEF2-TZVPPD
    Role: ORBITAL
    Keyword: BASIS
    atoms 1-3 entry AU         line  2995 (ECP: line  4084) file /mnt/storage/home/zw18965/.conda/envs/p4env/share/psi4/basis/def2-tzvppd.gbs 

    !!!  WARNING: ECP capability is in beta. Please check occupations closely.  !!!

   => SCAN-D3(BJ): Empirical Dispersion <=

    Grimme's -D3 (BJ-damping) Dispersion Correction
    Grimme S.; Ehrlich S.; Goerigk L. (2011), J. Comput. Chem., 32: 1456
    Parametrisation from:    J.G. Brandenburg, J. E. Bates, J. Sun, J.P. Perdew, Phys. Rev. B 94, 115144, 2016

        s6 =       1.000000
        s8 =       0.000000
        a1 =       0.538000
        a2 =       5.420000


         ---------------------------------------------------------
                                   SCF
               by Justin Turney, Rob Parrish, Andy Simmonett
                          and Daniel G. A. Smith
                              RKS Reference
                       28 Threads, 114440 MiB Core
         ---------------------------------------------------------

  ==> Geometry <==

    Molecular point group: d2h
    Full point group: D_inf_h

    Geometry (in Angstrom), charge = 1, multiplicity = 1:

       Center              X                  Y                   Z               Mass       
    ------------   -----------------  -----------------  -----------------  -----------------
         AU           0.000000000000     0.000000000000     0.000000000000   196.966568790000
         AU           0.000000000000     0.000000000000     2.553936942221   196.966568790000
         AU           0.000000000000     0.000000000000    -2.553936942221   196.966568790000

  Running in d2h symmetry.

  Rotational constants: A = ************  B =      0.00656  C =      0.00656 [cm^-1]
  Rotational constants: A = ************  B =    196.68641  C =    196.68641 [MHz]
  Nuclear repulsion =  186.998521668380050

  Charge       = 1
  Multiplicity = 1
  Electrons    = 56
  Nalpha       = 28
  Nbeta        = 28

  ==> Algorithm <==

  SCF Algorithm Type is DF.
  DIIS enabled.
  MOM disabled.
  Fractional occupation disabled.
  Guess Type is READ.
  Energy threshold   = 1.00e-08
  Density threshold  = 1.00e-08
  Integral threshold = 1.00e-12

  ==> Primary Basis <==

  Basis Set: DEF2-TZVPPD
    Blend: DEF2-TZVPPD
    Number of shells: 51
    Number of basis functions: 177
    Number of Cartesian functions: 222
    Spherical Harmonics?: true
    Max angular momentum: 4

  Core potential: DEF2-TZVPPD
    Number of shells: 12
    Number of ECP primitives: 42
    Number of ECP core electrons: 180
    Max angular momentum: 3

  ==> DFT Potential <==

   => Composite Functional: SCAN-D3BJ <= 

    SCAN Meta-GGA XC Functional
(10.1103/PhysRevLett.115.036402)
    J. Sun, A. Ruzsinszky, J. P. Perdew  Phys. Rev. Lett. 115, 036402, 2015


    Deriv               =              1
    GGA                 =           TRUE
    Meta                =           TRUE

    Exchange Hybrid     =          FALSE
    MP2 Hybrid          =          FALSE

   => Exchange Functionals <=

    1.0000   XC_MGGA_X_SCAN

   => Correlation Functionals <=

    1.0000   XC_MGGA_C_SCAN

   => LibXC Density Thresholds  <==

    XC_MGGA_C_SCAN:  1.00E-15 
    XC_MGGA_X_SCAN:  1.00E-15 

   => Molecular Quadrature <=

    Radial Scheme          =       TREUTLER
    Pruning Scheme         =           NONE
    Nuclear Scheme         =       TREUTLER

    BS radius alpha        =              1
    Pruning alpha          =              1
    Radial Points          =             75
    Spherical Points       =            302
    Total Points           =          63842
    Total Blocks           =            606
    Max Points             =            255
    Max Functions          =            170
    Weights Tolerance      =       1.00E-15

   => Loading Basis Set <=

    Name: (DEF2-TZVPPD AUX)
    Role: JKFIT
    Keyword: DF_BASIS_SCF
    atoms 1-3 entry AU         line  8426 file /mnt/storage/home/zw18965/.conda/envs/p4env/share/psi4/basis/def2-universal-jkfit.gbs 

   => Loading Basis Set <=

    Name: DEF2-TZVPPD
    Role: ORBITAL
    Keyword: BASIS
    atoms 1-3 entry AU         line  2995 (ECP: line  4084) file /mnt/storage/home/zw18965/.conda/envs/p4env/share/psi4/basis/def2-tzvppd.gbs 

    !!!  WARNING: ECP capability is in beta. Please check occupations closely.  !!!

  Reading orbitals from file /tmp/Au03C1_LIN.default.23204.180.npy, no projection.

  ==> Integral Setup <==

  DFHelper Memory: AOs need 0.179 GiB; user supplied 83.249 GiB. Using in-core AOs.

  ==> MemDFJK: Density-Fitted J/K Matrices <==

    J tasked:                   Yes
    K tasked:                    No
    wK tasked:                   No
    OpenMP threads:              28
    Memory [MiB]:             85246
    Algorithm:                 Core
    Schwarz Cutoff:           1E-12
    Mask sparsity (%):       8.1267
    Fitting Condition:        1E-10

   => Auxiliary Basis Set <=

  Basis Set: (DEF2-TZVPPD AUX)
    Blend: DEF2-UNIVERSAL-JKFIT
    Number of shells: 153
    Number of basis functions: 741
    Number of Cartesian functions: 1095
    Spherical Harmonics?: true
    Max angular momentum: 6

  Cached 100.0% of DFT collocation blocks in 0.570 [GiB].

  Minimum eigenvalue in the overlap matrix is 8.1478208050E-04.
  Reciprocal condition number of the overlap matrix is 1.8530126420E-04.
    Using symmetric orthogonalization.

  ==> Pre-Iterations <==

  SCF Guess: Orbitals guess was supplied from a previous computation.

   -------------------------------------------------------
    Irrep   Nso     Nmo     Nalpha   Nbeta   Ndocc  Nsocc
   -------------------------------------------------------
     Ag        39      39       8       8       8       0
     B1g       12      12       2       2       2       0
     B2g       19      19       3       3       3       0
     B3g       19      19       3       3       3       0
     Au         9       9       1       1       1       0
     B1u       33      33       5       5       5       0
     B2u       23      23       3       3       3       0
     B3u       23      23       3       3       3       0
   -------------------------------------------------------
    Total     177     177      28      28      28       0
   -------------------------------------------------------

  ==> Iterations <==

                           Total Energy        Delta E     RMS |[F,P]|

   @DF-RKS iter   0:  -407.03511078468165   -4.07035e+02   1.17344e-03 
   @DF-RKS iter   1:  -407.02521905910118    9.89173e-03   1.08676e-04 DIIS
   @DF-RKS iter   2:  -407.02517626304757    4.27961e-05   1.87472e-04 DIIS
   @DF-RKS iter   3:  -407.02523941020479   -6.31472e-05   3.50592e-05 DIIS
   @DF-RKS iter   4:  -407.02524144825645   -2.03805e-06   1.22457e-05 DIIS
   @DF-RKS iter   5:  -407.02524170340666   -2.55150e-07   1.02304e-06 DIIS
   @DF-RKS iter   6:  -407.02524170496599   -1.55933e-09   5.04071e-07 DIIS
   @DF-RKS iter   7:  -407.02524170531069   -3.44698e-10   9.15126e-08 DIIS
   @DF-RKS iter   8:  -407.02524170532530   -1.46088e-11   7.24844e-09 DIIS
  Energy and wave function converged.


  ==> Post-Iterations <==

   Electrons on quadrature grid:
      Ntotal   =   55.9999930835 ; deviation = -6.917e-06 

    Orbital Energies [Eh]
    ---------------------

    Doubly Occupied:                                                      

       1Ag    -4.312763     1B1u   -4.312758     2Ag    -4.278434  
       2B1u   -2.501011     3Ag    -2.499818     1B3u   -2.493537  
       1B2u   -2.493537     1B2g   -2.493529     1B3g   -2.493529  
       3B1u   -2.468025     2B2u   -2.453620     2B3u   -2.453620  
       4Ag    -0.565556     2B2g   -0.508751     2B3g   -0.508751  
       4B1u   -0.494298     3B3u   -0.485906     3B2u   -0.485906  
       5Ag    -0.477353     1B1g   -0.477276     5B1u   -0.476202  
       1Au    -0.476126     6Ag    -0.443760     7Ag    -0.431343  
       2B1g   -0.431248     3B2g   -0.425442     3B3g   -0.425442  
       8Ag    -0.414406  

    Virtual:                                                              

       6B1u   -0.410671     9Ag    -0.295604     4B2u   -0.208188  
       4B3u   -0.208188     7B1u   -0.186546     4B3g   -0.158195  
       4B2g   -0.158195     5B2u   -0.083121     5B3u   -0.083121  
      10Ag    -0.049271     8B1u   -0.023994    11Ag    -0.017108  
       6B2u    0.024892     6B3u    0.024892     9B1u    0.029828  
       5B3g    0.058700     5B2g    0.058700    12Ag     0.071964  
       7B2u    0.100582     7B3u    0.100582    13Ag     0.103629  
       3B1g    0.103631    14Ag     0.129262    10B1u    0.137074  
       2Au     0.137077     6B2g    0.162173     6B3g    0.162173  
      11B1u    0.173650    15Ag     0.230428     4B1g    0.230434  
      12B1u    0.233522     8B3u    0.262686     8B2u    0.262686  
      16Ag     0.352226     7B3g    0.386388     7B2g    0.386388  
      13B1u    0.419799    17Ag     0.489245    14B1u    0.621726  
       9B2u    0.724547     9B3u    0.724547    18Ag     0.828706  
      15B1u    0.831994     3Au     0.832067     8B3g    0.844134  
       8B2g    0.844134    10B2u    0.866284    10B3u    0.866284  
      11B2u    0.900931    11B3u    0.900931     9B3g    0.903380  
       9B2g    0.903380    19Ag     0.913803     5B1g    0.913873  
      12B2u    0.930555    12B3u    0.930555    13B2u    0.953770  
      13B3u    0.953770    16B1u    0.992526    17B1u    1.015669  
       4Au     1.015756    10B3g    1.043192    10B2g    1.043192  
      20Ag     1.062482    14B2u    1.191697    14B3u    1.191697  
      11B3g    1.221851    11B2g    1.221851    18B1u    1.227518  
       6B1g    1.252181    21Ag     1.252220    19B1u    1.263652  
       5Au     1.264537    20B1u    1.264575    22Ag     1.312785  
       7B1g    1.337807    23Ag     1.337865    15B2u    1.425759  
      15B3u    1.425759    12B3g    1.515534    12B2g    1.515534  
      21B1u    1.683445    24Ag     1.868806    25Ag     1.938586  
      22B1u    2.238112    26Ag     2.604236    16B3u    3.284646  
      16B2u    3.284646    23B1u    3.313336     6Au     3.313508  
      17B2u    3.371697    17B3u    3.371697    13B3g    3.374376  
      13B2g    3.374376    27Ag     3.379099     8B1g    3.379258  
      18B2u    3.413708    18B3u    3.413708    14B2g    3.444053  
      14B3g    3.444053    24B1u    3.484529     7Au     3.484709  
      25B1u    3.524234    28Ag     3.603809    19B3u    3.692512  
      19B2u    3.692512    26B1u    3.805730    15B2g    3.936782  
      15B3g    3.936782    29Ag     3.939418     9B1g    3.940130  
      30Ag     3.940319    16B3g    3.944335    16B2g    3.944335  
      20B2u    3.944418    20B3u    3.944418     8Au     3.945107  
      27B1u    3.945302    28B1u    3.947167    31Ag     3.947167  
      10B1g    3.947829     9Au     3.947829    11B1g    3.982285  
      32Ag     3.982397    17B3g    3.985324    17B2g    3.985324  
      33Ag     3.994993    12B1g    3.995912    21B3u    4.023563  
      21B2u    4.023563    18B2g    4.049104    18B3g    4.049104  
      34Ag     4.269549    29B1u    4.294366    22B3u   27.147350  
      22B2u   27.147350    19B2g   27.465488    19B3g   27.465488  
      23B3u   27.716998    23B2u   27.716998    30B1u   28.051985  
      35Ag    28.402182    31B1u   31.278443    36Ag    43.890126  
      32B1u   44.177850    37Ag    44.603839    38Ag   204.982117  
      33B1u  205.101989    39Ag   205.296900  

    Final Occupation by Irrep:
             Ag   B1g   B2g   B3g    Au   B1u   B2u   B3u 
    DOCC [     8,    2,    3,    3,    1,    5,    3,    3 ]

  @DF-RKS Final Energy:  -407.02524170532530

   => Energetics <=

    Nuclear Repulsion Energy =            186.9985216683800502
    One-Electron Energy =               -1078.4289373792789775
    Two-Electron Energy =                 522.8288101294767785
    DFT Exchange-Correlation Energy =     -38.4230895139031148
    Empirical Dispersion Energy =          -0.0005466100000000
    VV10 Nonlocal Energy =                  0.0000000000000000
    Total Energy =                       -407.0252417053252998

Computation Completed


Properties will be evaluated at   0.000000,   0.000000,   0.000000 [a0]

Properties computed using the SCF density matrix

  Nuclear Dipole Moment: [e a0]
     X:     0.0000      Y:     0.0000      Z:     0.0000

  Electronic Dipole Moment: [e a0]
     X:     0.0000      Y:     0.0000      Z:     0.0000

  Dipole Moment: [e a0]
     X:     0.0000      Y:     0.0000      Z:     0.0000     Total:     0.0000

  Dipole Moment: [D]
     X:     0.0000      Y:     0.0000      Z:     0.0000     Total:     0.0000


*** tstop() called on compute286.bc4.acrc.priv at Fri Nov  5 09:23:41 2021
Module time:
	user time   =      74.99 seconds =       1.25 minutes
	system time =       1.92 seconds =       0.03 minutes
	total time  =          8 seconds =       0.13 minutes
Total time:
	user time   =    1387.46 seconds =      23.12 minutes
	system time =      19.38 seconds =       0.32 minutes
	total time  =        215 seconds =       3.58 minutes

*** tstart() called on compute286.bc4.acrc.priv
*** at Fri Nov  5 09:23:41 2021


         ------------------------------------------------------------
                                   SCF GRAD                          
                          Rob Parrish, Justin Turney,                
                       Andy Simmonett, and Alex Sokolov              
         ------------------------------------------------------------

  ==> Geometry <==

    Molecular point group: d2h
    Full point group: D_inf_h

    Geometry (in Angstrom), charge = 1, multiplicity = 1:

       Center              X                  Y                   Z               Mass       
    ------------   -----------------  -----------------  -----------------  -----------------
         AU           0.000000000000     0.000000000000     0.000000000000   196.966568790000
         AU           0.000000000000     0.000000000000     2.553936942221   196.966568790000
         AU           0.000000000000     0.000000000000    -2.553936942221   196.966568790000

  Nuclear repulsion =  186.998521668380050

  ==> Basis Set <==

  Basis Set: DEF2-TZVPPD
    Blend: DEF2-TZVPPD
    Number of shells: 51
    Number of basis functions: 177
    Number of Cartesian functions: 222
    Spherical Harmonics?: true
    Max angular momentum: 4

  Core potential: DEF2-TZVPPD
    Number of shells: 12
    Number of ECP primitives: 42
    Number of ECP core electrons: 180
    Max angular momentum: 3

  ==> DFJKGrad: Density-Fitted SCF Gradients <==

    Gradient:                    1
    J tasked:                  Yes
    K tasked:                   No
    wK tasked:                  No
    OpenMP threads:             28
    Integrals threads:          28
    Memory [MiB]:            85830
    Schwarz Cutoff:          1E-12
    Fitting Condition:       1E-10

   => Auxiliary Basis Set <=

  Basis Set: (DEF2-TZVPPD AUX)
    Blend: DEF2-UNIVERSAL-JKFIT
    Number of shells: 153
    Number of basis functions: 741
    Number of Cartesian functions: 1095
    Spherical Harmonics?: true
    Max angular momentum: 6

  ==> DFT Potential <==

   => Composite Functional: SCAN-D3BJ <= 

    SCAN Meta-GGA XC Functional
(10.1103/PhysRevLett.115.036402)
    J. Sun, A. Ruzsinszky, J. P. Perdew  Phys. Rev. Lett. 115, 036402, 2015


    Deriv               =              1
    GGA                 =           TRUE
    Meta                =           TRUE

    Exchange Hybrid     =          FALSE
    MP2 Hybrid          =          FALSE

   => Exchange Functionals <=

    1.0000   XC_MGGA_X_SCAN

   => Correlation Functionals <=

    1.0000   XC_MGGA_C_SCAN

   => LibXC Density Thresholds  <==

    XC_MGGA_C_SCAN:  1.00E-15 
    XC_MGGA_X_SCAN:  1.00E-15 

   => Molecular Quadrature <=

    Radial Scheme          =       TREUTLER
    Pruning Scheme         =           NONE
    Nuclear Scheme         =       TREUTLER

    BS radius alpha        =              1
    Pruning alpha          =              1
    Radial Points          =             75
    Spherical Points       =            302
    Total Points           =          63842
    Total Blocks           =            606
    Max Points             =            255
    Max Functions          =            170
    Weights Tolerance      =       1.00E-15


  -Total Gradient:
     Atom            X                  Y                   Z
    ------   -----------------  -----------------  -----------------
       1       -0.000000000000     0.000000000000     0.000000000000
       2        0.000000000000    -0.000000000000    -0.049626653914
       3        0.000000000000    -0.000000000000     0.049626653914


*** tstop() called on compute286.bc4.acrc.priv at Fri Nov  5 09:23:50 2021
Module time:
	user time   =      51.11 seconds =       0.85 minutes
	system time =       1.63 seconds =       0.03 minutes
	total time  =          9 seconds =       0.15 minutes
Total time:
	user time   =    1441.29 seconds =      24.02 minutes
	system time =      21.14 seconds =       0.35 minutes
	total time  =        224 seconds =       3.73 minutes


  ==> Adding ECP gradient terms (computed numerically) <==

  -ECP Gradient:
     Atom            X                  Y                   Z
    ------   -----------------  -----------------  -----------------
       1        0.000000000000     0.000000000000     0.000000000000
       2        0.000000000000    -0.000000000000     0.048973689539
       3       -0.000000000000     0.000000000000    -0.048973689539


  -Total Gradient:
     Atom            X                  Y                   Z
    ------   -----------------  -----------------  -----------------
       1        0.000000000000     0.000000000000     0.000000000000
       2        0.000000000000    -0.000000000000    -0.000652964375
       3       -0.000000000000    -0.000000000000     0.000652964375


			-----------------------------------------
			 OPTKING 2.0: for geometry optimizations 
			  - R.A. King,  Bethel University        
			-----------------------------------------
	At level 1: Red. Int., RFO, no backsteps, dynamic trust

	Previous internal coordinate definitions found.
	---Fragment 1 Geometry and Gradient---
	 AU          0.0000000000        0.0000000000        0.0000000000
	 AU          0.0000000000        0.0000000000        4.8262413625
	 AU          0.0000000000        0.0000000000       -4.8262413625
	             0.0000000000        0.0000000000        0.0000000000
	             0.0000000000       -0.0000000000       -0.0006529644
	            -0.0000000000       -0.0000000000        0.0006529644

	---Fragment 1 Intrafragment Coordinates---
	 - Coordinate -           - BOHR/RAD -       - ANG/DEG -
	 R(1,2)           =         4.826241	       2.553937
	 R(1,3)           =         4.826241	       2.553937
	 L(2,1,3)         =         3.141593	     180.000000
	 l(2,1,3)         =         3.141593	     180.000000

	Current energy   :      -407.0252417053

	Energy change for the previous step:
		Projected    :         0.0015740515
		Actual       :         0.0003593662

	Performing BFGS update.
	Previous computed or guess Hessian on step 1.
	Steps to be used in Hessian update: 1
	Taking RFO optimization step.
	Going to follow RFO solution 1.
	Using RFO vector 1.
	Norm of target step-size    0.00980
	Projected energy change by RFO approximation:         0.0000248985

	Back-transformation to cartesian coordinates...
	Successfully converged to displaced geometry.

	--- Internal Coordinate Step in ANG or DEG, aJ/ANG or AJ/DEG ---
	 ---------------------------------------------------------------------------
	   Coordinate                Previous        Force       Change         New 
	   ----------                --------       ------       ------       ------
	    1 R(1,2)          =      2.553937     0.005380     0.003667     2.557604
	    2 R(1,3)          =      2.553937     0.005380     0.003667     2.557604
	    3 L(2,1,3)        =    180.000000    -0.000000     0.000000   180.000000
	    4 l(2,1,3)        =    180.000000    -0.000000     0.000000   180.000000
	 ---------------------------------------------------------------------------
	Successfully symmetrized geometry.

  ==> Convergence Check <==

  Measures of convergence in internal coordinates in au.
  Criteria marked as inactive (o), active & met (*), and active & unmet ( ).
  ---------------------------------------------------------------------------------------------
   Step     Total Energy     Delta E     MAX Force     RMS Force      MAX Disp      RMS Disp   
  ---------------------------------------------------------------------------------------------
    Convergence Criteria    1.00e-06 *    3.00e-04 *             o    1.20e-03 *             o
  ---------------------------------------------------------------------------------------------
      2    -407.02524171    3.59e-04      6.53e-04      4.62e-04 o    6.93e-03      4.90e-03 o  ~
  ---------------------------------------------------------------------------------------------

	Writing optimization data to binary file.
	Structure for next step:
	Cartesian Geometry (in Angstrom)
	   AU     0.0000000000  -0.0000000000   0.0000000000
	   AU    -0.0000000000   0.0000000000   2.5576036474
	   AU    -0.0000000000   0.0000000000  -2.5576036474
			--------------------------
			 OPTKING Finished Execution 
			--------------------------

    Structure for next step:
    Molecular point group: d2h
    Full point group: D_inf_h

    Geometry (in Angstrom), charge = 1, multiplicity = 1:

    AU          -0.000000000000    -0.000000000000     0.000000000000
    AU           0.000000000000     0.000000000000     2.557603657460
    AU           0.000000000000     0.000000000000    -2.557603657460


Scratch directory: /tmp/
gradient() will perform analytic gradient computation.

*** tstart() called on compute286.bc4.acrc.priv
*** at Fri Nov  5 09:26:55 2021

   => Loading Basis Set <=

    Name: DEF2-TZVPPD
    Role: ORBITAL
    Keyword: BASIS
    atoms 1-3 entry AU         line  2995 (ECP: line  4084) file /mnt/storage/home/zw18965/.conda/envs/p4env/share/psi4/basis/def2-tzvppd.gbs 

    !!!  WARNING: ECP capability is in beta. Please check occupations closely.  !!!

   => SCAN-D3(BJ): Empirical Dispersion <=

    Grimme's -D3 (BJ-damping) Dispersion Correction
    Grimme S.; Ehrlich S.; Goerigk L. (2011), J. Comput. Chem., 32: 1456
    Parametrisation from:    J.G. Brandenburg, J. E. Bates, J. Sun, J.P. Perdew, Phys. Rev. B 94, 115144, 2016

        s6 =       1.000000
        s8 =       0.000000
        a1 =       0.538000
        a2 =       5.420000


         ---------------------------------------------------------
                                   SCF
               by Justin Turney, Rob Parrish, Andy Simmonett
                          and Daniel G. A. Smith
                              RKS Reference
                       28 Threads, 114440 MiB Core
         ---------------------------------------------------------

  ==> Geometry <==

    Molecular point group: d2h
    Full point group: D_inf_h

    Geometry (in Angstrom), charge = 1, multiplicity = 1:

       Center              X                  Y                   Z               Mass       
    ------------   -----------------  -----------------  -----------------  -----------------
         AU           0.000000000000     0.000000000000     0.000000000000   196.966568790000
         AU           0.000000000000     0.000000000000     2.557603657460   196.966568790000
         AU           0.000000000000     0.000000000000    -2.557603657460   196.966568790000

  Running in d2h symmetry.

  Rotational constants: A = ************  B =      0.00654  C =      0.00654 [cm^-1]
  Rotational constants: A = ************  B =    196.12285  C =    196.12285 [MHz]
  Nuclear repulsion =  186.730430743915321

  Charge       = 1
  Multiplicity = 1
  Electrons    = 56
  Nalpha       = 28
  Nbeta        = 28

  ==> Algorithm <==

  SCF Algorithm Type is DF.
  DIIS enabled.
  MOM disabled.
  Fractional occupation disabled.
  Guess Type is READ.
  Energy threshold   = 1.00e-08
  Density threshold  = 1.00e-08
  Integral threshold = 1.00e-12

  ==> Primary Basis <==

  Basis Set: DEF2-TZVPPD
    Blend: DEF2-TZVPPD
    Number of shells: 51
    Number of basis functions: 177
    Number of Cartesian functions: 222
    Spherical Harmonics?: true
    Max angular momentum: 4

  Core potential: DEF2-TZVPPD
    Number of shells: 12
    Number of ECP primitives: 42
    Number of ECP core electrons: 180
    Max angular momentum: 3

  ==> DFT Potential <==

   => Composite Functional: SCAN-D3BJ <= 

    SCAN Meta-GGA XC Functional
(10.1103/PhysRevLett.115.036402)
    J. Sun, A. Ruzsinszky, J. P. Perdew  Phys. Rev. Lett. 115, 036402, 2015


    Deriv               =              1
    GGA                 =           TRUE
    Meta                =           TRUE

    Exchange Hybrid     =          FALSE
    MP2 Hybrid          =          FALSE

   => Exchange Functionals <=

    1.0000   XC_MGGA_X_SCAN

   => Correlation Functionals <=

    1.0000   XC_MGGA_C_SCAN

   => LibXC Density Thresholds  <==

    XC_MGGA_C_SCAN:  1.00E-15 
    XC_MGGA_X_SCAN:  1.00E-15 

   => Molecular Quadrature <=

    Radial Scheme          =       TREUTLER
    Pruning Scheme         =           NONE
    Nuclear Scheme         =       TREUTLER

    BS radius alpha        =              1
    Pruning alpha          =              1
    Radial Points          =             75
    Spherical Points       =            302
    Total Points           =          63852
    Total Blocks           =            608
    Max Points             =            255
    Max Functions          =            170
    Weights Tolerance      =       1.00E-15

   => Loading Basis Set <=

    Name: (DEF2-TZVPPD AUX)
    Role: JKFIT
    Keyword: DF_BASIS_SCF
    atoms 1-3 entry AU         line  8426 file /mnt/storage/home/zw18965/.conda/envs/p4env/share/psi4/basis/def2-universal-jkfit.gbs 

   => Loading Basis Set <=

    Name: DEF2-TZVPPD
    Role: ORBITAL
    Keyword: BASIS
    atoms 1-3 entry AU         line  2995 (ECP: line  4084) file /mnt/storage/home/zw18965/.conda/envs/p4env/share/psi4/basis/def2-tzvppd.gbs 

    !!!  WARNING: ECP capability is in beta. Please check occupations closely.  !!!

  Reading orbitals from file /tmp/Au03C1_LIN.default.23204.180.npy, no projection.

  ==> Integral Setup <==

  DFHelper Memory: AOs need 0.179 GiB; user supplied 83.250 GiB. Using in-core AOs.

  ==> MemDFJK: Density-Fitted J/K Matrices <==

    J tasked:                   Yes
    K tasked:                    No
    wK tasked:                   No
    OpenMP threads:              28
    Memory [MiB]:             85247
    Algorithm:                 Core
    Schwarz Cutoff:           1E-12
    Mask sparsity (%):       8.1777
    Fitting Condition:        1E-10

   => Auxiliary Basis Set <=

  Basis Set: (DEF2-TZVPPD AUX)
    Blend: DEF2-UNIVERSAL-JKFIT
    Number of shells: 153
    Number of basis functions: 741
    Number of Cartesian functions: 1095
    Spherical Harmonics?: true
    Max angular momentum: 6

  Cached 100.0% of DFT collocation blocks in 0.569 [GiB].

  Minimum eigenvalue in the overlap matrix is 8.2298480999E-04.
  Reciprocal condition number of the overlap matrix is 1.8723065695E-04.
    Using symmetric orthogonalization.

  ==> Pre-Iterations <==

  SCF Guess: Orbitals guess was supplied from a previous computation.

   -------------------------------------------------------
    Irrep   Nso     Nmo     Nalpha   Nbeta   Ndocc  Nsocc
   -------------------------------------------------------
     Ag        39      39       8       8       8       0
     B1g       12      12       2       2       2       0
     B2g       19      19       3       3       3       0
     B3g       19      19       3       3       3       0
     Au         9       9       1       1       1       0
     B1u       33      33       5       5       5       0
     B2u       23      23       3       3       3       0
     B3u       23      23       3       3       3       0
   -------------------------------------------------------
    Total     177     177      28      28      28       0
   -------------------------------------------------------

  ==> Iterations <==

                           Total Energy        Delta E     RMS |[F,P]|

   @DF-RKS iter   0:  -407.02374605477507   -4.07024e+02   3.07923e-04 
   @DF-RKS iter   1:  -407.02574016754033   -1.99411e-03   1.49562e-05 DIIS
   @DF-RKS iter   2:  -407.02573927649991    8.91040e-07   2.67907e-05 DIIS
   @DF-RKS iter   3:  -407.02574062780002   -1.35130e-06   4.41767e-06 DIIS
   @DF-RKS iter   4:  -407.02574066118672   -3.33867e-08   1.60674e-06 DIIS
   @DF-RKS iter   5:  -407.02574066508043   -3.89372e-09   2.93101e-07 DIIS
   @DF-RKS iter   6:  -407.02574066521652   -1.36083e-10   1.02190e-07 DIIS
   @DF-RKS iter   7:  -407.02574066523169   -1.51772e-11   2.44732e-08 DIIS
   @DF-RKS iter   8:  -407.02574066523266   -9.66338e-13   1.78409e-09 DIIS
  Energy and wave function converged.


  ==> Post-Iterations <==

   Electrons on quadrature grid:
      Ntotal   =   55.9999926181 ; deviation = -7.382e-06 

    Orbital Energies [Eh]
    ---------------------

    Doubly Occupied:                                                      

       1Ag    -4.312786     1B1u   -4.312781     2Ag    -4.278397  
       2B1u   -2.500946     3Ag    -2.499790     1B3u   -2.493568  
       1B2u   -2.493568     1B2g   -2.493560     1B3g   -2.493560  
       3B1u   -2.467973     2B3u   -2.453606     2B2u   -2.453606  
       4Ag    -0.564944     2B3g   -0.508441     2B2g   -0.508441  
       4B1u   -0.494385     3B2u   -0.485843     3B3u   -0.485843  
       5Ag    -0.477363     1B1g   -0.477286     5B1u   -0.476232  
       1Au    -0.476156     6Ag    -0.443782     7Ag    -0.431367  
       2B1g   -0.431273     3B3g   -0.425671     3B2g   -0.425671  
       8Ag    -0.414550  

    Virtual:                                                              

       6B1u   -0.410671     9Ag    -0.295954     4B3u   -0.208167  
       4B2u   -0.208167     7B1u   -0.186767     4B3g   -0.158351  
       4B2g   -0.158351     5B3u   -0.083506     5B2u   -0.083506  
      10Ag    -0.049885     8B1u   -0.024845    11Ag    -0.017417  
       6B2u    0.024748     6B3u    0.024748     9B1u    0.029765  
       5B3g    0.058448     5B2g    0.058448    12Ag     0.071324  
       7B2u    0.100083     7B3u    0.100083    13Ag     0.103551  
       3B1g    0.103553    14Ag     0.127322    10B1u    0.137010  
       2Au     0.137012     6B2g    0.161929     6B3g    0.161929  
      11B1u    0.175952    12B1u    0.228833    15Ag     0.230134  
       4B1g    0.230139     8B3u    0.262248     8B2u    0.262248  
      16Ag     0.352319     7B3g    0.385839     7B2g    0.385839  
      13B1u    0.417751    17Ag     0.488444    14B1u    0.624498  
       9B2u    0.725571     9B3u    0.725571    18Ag     0.828684  
      15B1u    0.832700     3Au     0.832772     8B3g    0.844384  
       8B2g    0.844384    10B2u    0.865886    10B3u    0.865886  
      11B2u    0.900966    11B3u    0.900966     9B3g    0.903357  
       9B2g    0.903357    19Ag     0.913673     5B1g    0.913744  
      12B3u    0.930139    12B2u    0.930139    13B3u    0.953673  
      13B2u    0.953673    16B1u    0.990724    17B1u    1.014780  
       4Au     1.014866    10B3g    1.042694    10B2g    1.042694  
      20Ag     1.061538    14B3u    1.190884    14B2u    1.190884  
      11B2g    1.222006    11B3g    1.222006    18B1u    1.230895  
       6B1g    1.252308    21Ag     1.252348    19B1u    1.261556  
       5Au     1.264502    20B1u    1.264539    22Ag     1.311423  
       7B1g    1.337461    23Ag     1.337519    15B3u    1.423955  
      15B2u    1.423955    12B3g    1.514058    12B2g    1.514058  
      21B1u    1.681323    24Ag     1.867165    25Ag     1.937735  
      22B1u    2.236269    26Ag     2.601547    16B3u    3.284150  
      16B2u    3.284150    23B1u    3.313840     6Au     3.314011  
      17B2u    3.371741    17B3u    3.371741    13B3g    3.374357  
      13B2g    3.374357    27Ag     3.379072     8B1g    3.379230  
      18B3u    3.413637    18B2u    3.413637    14B2g    3.443864  
      14B3g    3.443864    24B1u    3.483708     7Au     3.483887  
      25B1u    3.521357    28Ag     3.603474    19B3u    3.691747  
      19B2u    3.691747    26B1u    3.806691    15B2g    3.936997  
      15B3g    3.936997    29Ag     3.940126     9B1g    3.940200  
      30Ag     3.940379    16B2g    3.944329    16B3g    3.944329  
      20B3u    3.944409    20B2u    3.944409     8Au     3.944985  
      27B1u    3.945169    28B1u    3.947126    31Ag     3.947126  
      10B1g    3.947794     9Au     3.947794    11B1g    3.982142  
      32Ag     3.982249    17B3g    3.985338    17B2g    3.985338  
      33Ag     3.994970    12B1g    3.995897    21B3u    4.021402  
      21B2u    4.021402    18B2g    4.047484    18B3g    4.047484  
      34Ag     4.264595    29B1u    4.289851    22B2u   27.148890  
      22B3u   27.148890    19B3g   27.464658    19B2g   27.464658  
      23B2u   27.712911    23B3u   27.712911    30B1u   28.050752  
      35Ag    28.384214    31B1u   31.232522    36Ag    43.889403  
      32B1u   44.175645    37Ag    44.601175    38Ag   204.981786  
      33B1u  205.100986    39Ag   205.295780  

    Final Occupation by Irrep:
             Ag   B1g   B2g   B3g    Au   B1u   B2u   B3u 
    DOCC [     8,    2,    3,    3,    1,    5,    3,    3 ]

  @DF-RKS Final Energy:  -407.02574066523266

   => Energetics <=

    Nuclear Repulsion Energy =            186.7304307439153206
    One-Electron Energy =               -1077.8955829649901261
    Two-Electron Energy =                 522.5616885315980653
    DFT Exchange-Correlation Energy =     -38.4217307957559342
    Empirical Dispersion Energy =          -0.0005461800000000
    VV10 Nonlocal Energy =                  0.0000000000000000
    Total Energy =                       -407.0257406652326608

Computation Completed


Properties will be evaluated at   0.000000,   0.000000,   0.000000 [a0]

Properties computed using the SCF density matrix

  Nuclear Dipole Moment: [e a0]
     X:     0.0000      Y:     0.0000      Z:    -0.0000

  Electronic Dipole Moment: [e a0]
     X:     0.0000      Y:     0.0000      Z:     0.0000

  Dipole Moment: [e a0]
     X:     0.0000      Y:     0.0000      Z:    -0.0000     Total:     0.0000

  Dipole Moment: [D]
     X:     0.0000      Y:     0.0000      Z:    -0.0000     Total:     0.0000


*** tstop() called on compute286.bc4.acrc.priv at Fri Nov  5 09:27:03 2021
Module time:
	user time   =      74.04 seconds =       1.23 minutes
	system time =       1.93 seconds =       0.03 minutes
	total time  =          8 seconds =       0.13 minutes
Total time:
	user time   =    2668.28 seconds =      44.47 minutes
	system time =      32.97 seconds =       0.55 minutes
	total time  =        417 seconds =       6.95 minutes

*** tstart() called on compute286.bc4.acrc.priv
*** at Fri Nov  5 09:27:03 2021


         ------------------------------------------------------------
                                   SCF GRAD                          
                          Rob Parrish, Justin Turney,                
                       Andy Simmonett, and Alex Sokolov              
         ------------------------------------------------------------

  ==> Geometry <==

    Molecular point group: d2h
    Full point group: D_inf_h

    Geometry (in Angstrom), charge = 1, multiplicity = 1:

       Center              X                  Y                   Z               Mass       
    ------------   -----------------  -----------------  -----------------  -----------------
         AU           0.000000000000     0.000000000000     0.000000000000   196.966568790000
         AU           0.000000000000     0.000000000000     2.557603657460   196.966568790000
         AU           0.000000000000     0.000000000000    -2.557603657460   196.966568790000

  Nuclear repulsion =  186.730430743915321

  ==> Basis Set <==

  Basis Set: DEF2-TZVPPD
    Blend: DEF2-TZVPPD
    Number of shells: 51
    Number of basis functions: 177
    Number of Cartesian functions: 222
    Spherical Harmonics?: true
    Max angular momentum: 4

  Core potential: DEF2-TZVPPD
    Number of shells: 12
    Number of ECP primitives: 42
    Number of ECP core electrons: 180
    Max angular momentum: 3

  ==> DFJKGrad: Density-Fitted SCF Gradients <==

    Gradient:                    1
    J tasked:                  Yes
    K tasked:                   No
    wK tasked:                  No
    OpenMP threads:             28
    Integrals threads:          28
    Memory [MiB]:            85830
    Schwarz Cutoff:          1E-12
    Fitting Condition:       1E-10

   => Auxiliary Basis Set <=

  Basis Set: (DEF2-TZVPPD AUX)
    Blend: DEF2-UNIVERSAL-JKFIT
    Number of shells: 153
    Number of basis functions: 741
    Number of Cartesian functions: 1095
    Spherical Harmonics?: true
    Max angular momentum: 6

  ==> DFT Potential <==

   => Composite Functional: SCAN-D3BJ <= 

    SCAN Meta-GGA XC Functional
(10.1103/PhysRevLett.115.036402)
    J. Sun, A. Ruzsinszky, J. P. Perdew  Phys. Rev. Lett. 115, 036402, 2015


    Deriv               =              1
    GGA                 =           TRUE
    Meta                =           TRUE

    Exchange Hybrid     =          FALSE
    MP2 Hybrid          =          FALSE

   => Exchange Functionals <=

    1.0000   XC_MGGA_X_SCAN

   => Correlation Functionals <=

    1.0000   XC_MGGA_C_SCAN

   => LibXC Density Thresholds  <==

    XC_MGGA_C_SCAN:  1.00E-15 
    XC_MGGA_X_SCAN:  1.00E-15 

   => Molecular Quadrature <=

    Radial Scheme          =       TREUTLER
    Pruning Scheme         =           NONE
    Nuclear Scheme         =       TREUTLER

    BS radius alpha        =              1
    Pruning alpha          =              1
    Radial Points          =             75
    Spherical Points       =            302
    Total Points           =          63852
    Total Blocks           =            608
    Max Points             =            255
    Max Functions          =            170
    Weights Tolerance      =       1.00E-15


  -Total Gradient:
     Atom            X                  Y                   Z
    ------   -----------------  -----------------  -----------------
       1       -0.000000000000    -0.000000000000     0.000000000000
       2        0.000000000000    -0.000000000000    -0.049262956850
       3        0.000000000000    -0.000000000000     0.049262956850


*** tstop() called on compute286.bc4.acrc.priv at Fri Nov  5 09:27:12 2021
Module time:
	user time   =      51.76 seconds =       0.86 minutes
	system time =       1.59 seconds =       0.03 minutes
	total time  =          9 seconds =       0.15 minutes
Total time:
	user time   =    2722.86 seconds =      45.38 minutes
	system time =      34.70 seconds =       0.58 minutes
	total time  =        426 seconds =       7.10 minutes


  ==> Adding ECP gradient terms (computed numerically) <==

  -ECP Gradient:
     Atom            X                  Y                   Z
    ------   -----------------  -----------------  -----------------
       1       -0.000000000000     0.000000000000     0.000000000000
       2        0.000000000000     0.000000000000     0.049518808742
       3        0.000000000000    -0.000000000000    -0.049518808742


  -Total Gradient:
     Atom            X                  Y                   Z
    ------   -----------------  -----------------  -----------------
       1       -0.000000000000    -0.000000000000     0.000000000000
       2        0.000000000000    -0.000000000000     0.000255851892
       3        0.000000000000    -0.000000000000    -0.000255851892


			-----------------------------------------
			 OPTKING 2.0: for geometry optimizations 
			  - R.A. King,  Bethel University        
			-----------------------------------------
	At level 1: Red. Int., RFO, no backsteps, dynamic trust

	Previous internal coordinate definitions found.
	---Fragment 1 Geometry and Gradient---
	 AU          0.0000000000        0.0000000000        0.0000000000
	 AU          0.0000000000        0.0000000000        4.8331704501
	 AU          0.0000000000        0.0000000000       -4.8331704501
	            -0.0000000000       -0.0000000000        0.0000000000
	             0.0000000000       -0.0000000000        0.0002558519
	             0.0000000000       -0.0000000000       -0.0002558519

	---Fragment 1 Intrafragment Coordinates---
	 - Coordinate -           - BOHR/RAD -       - ANG/DEG -
	 R(1,2)           =         4.833170	       2.557604
	 R(1,3)           =         4.833170	       2.557604
	 L(2,1,3)         =         3.141593	     180.000000
	 l(2,1,3)         =         3.141593	     180.000000

	Current energy   :      -407.0257406652

	Energy change for the previous step:
		Projected    :         0.0000248985
		Actual       :        -0.0004989599

	Performing BFGS update.
	Previous computed or guess Hessian on step 1.
	Steps to be used in Hessian update: 2 1
	Taking RFO optimization step.
	Going to follow RFO solution 1.
	Using RFO vector 1.
	Norm of target step-size    0.00415
	Projected energy change by RFO approximation:        -0.0000075892

	Back-transformation to cartesian coordinates...
	Successfully converged to displaced geometry.

	--- Internal Coordinate Step in ANG or DEG, aJ/ANG or AJ/DEG ---
	 ---------------------------------------------------------------------------
	   Coordinate                Previous        Force       Change         New 
	   ----------                --------       ------       ------       ------
	    1 R(1,2)          =      2.557604    -0.002108    -0.001553     2.556051
	    2 R(1,3)          =      2.557604    -0.002108    -0.001553     2.556051
	    3 L(2,1,3)        =    180.000000     0.000000     0.000000   180.000000
	    4 l(2,1,3)        =    180.000000    -0.000000     0.000000   180.000000
	 ---------------------------------------------------------------------------
	Successfully symmetrized geometry.

  ==> Convergence Check <==

  Measures of convergence in internal coordinates in au.
  Criteria marked as inactive (o), active & met (*), and active & unmet ( ).
  ---------------------------------------------------------------------------------------------
   Step     Total Energy     Delta E     MAX Force     RMS Force      MAX Disp      RMS Disp   
  ---------------------------------------------------------------------------------------------
    Convergence Criteria    1.00e-06 *    3.00e-04 *             o    1.20e-03 *             o
  ---------------------------------------------------------------------------------------------
      3    -407.02574067   -4.99e-04      2.56e-04 *    1.81e-04 o    2.93e-03      2.07e-03 o  ~
  ---------------------------------------------------------------------------------------------

	Writing optimization data to binary file.
	Structure for next step:
	Cartesian Geometry (in Angstrom)
	   AU    -0.0000000000   0.0000000000   0.0000000000
	   AU     0.0000000000  -0.0000000000   2.5560509356
	   AU     0.0000000000  -0.0000000000  -2.5560509356
			--------------------------
			 OPTKING Finished Execution 
			--------------------------

    Structure for next step:
    Molecular point group: d2h
    Full point group: D_inf_h

    Geometry (in Angstrom), charge = 1, multiplicity = 1:

    AU           0.000000000000     0.000000000000     0.000000000000
    AU          -0.000000000000    -0.000000000000     2.556050945613
    AU          -0.000000000000    -0.000000000000    -2.556050945613


Scratch directory: /tmp/
gradient() will perform analytic gradient computation.

*** tstart() called on compute286.bc4.acrc.priv
*** at Fri Nov  5 09:30:17 2021

   => Loading Basis Set <=

    Name: DEF2-TZVPPD
    Role: ORBITAL
    Keyword: BASIS
    atoms 1-3 entry AU         line  2995 (ECP: line  4084) file /mnt/storage/home/zw18965/.conda/envs/p4env/share/psi4/basis/def2-tzvppd.gbs 

    !!!  WARNING: ECP capability is in beta. Please check occupations closely.  !!!

   => SCAN-D3(BJ): Empirical Dispersion <=

    Grimme's -D3 (BJ-damping) Dispersion Correction
    Grimme S.; Ehrlich S.; Goerigk L. (2011), J. Comput. Chem., 32: 1456
    Parametrisation from:    J.G. Brandenburg, J. E. Bates, J. Sun, J.P. Perdew, Phys. Rev. B 94, 115144, 2016

        s6 =       1.000000
        s8 =       0.000000
        a1 =       0.538000
        a2 =       5.420000


         ---------------------------------------------------------
                                   SCF
               by Justin Turney, Rob Parrish, Andy Simmonett
                          and Daniel G. A. Smith
                              RKS Reference
                       28 Threads, 114440 MiB Core
         ---------------------------------------------------------

  ==> Geometry <==

    Molecular point group: d2h
    Full point group: D_inf_h

    Geometry (in Angstrom), charge = 1, multiplicity = 1:

       Center              X                  Y                   Z               Mass       
    ------------   -----------------  -----------------  -----------------  -----------------
         AU           0.000000000000     0.000000000000     0.000000000000   196.966568790000
         AU           0.000000000000     0.000000000000     2.556050945613   196.966568790000
         AU           0.000000000000     0.000000000000    -2.556050945613   196.966568790000

  Running in d2h symmetry.

  Rotational constants: A = ************  B =      0.00655  C =      0.00655 [cm^-1]
  Rotational constants: A = ************  B =    196.36120  C =    196.36120 [MHz]
  Nuclear repulsion =  186.843862971250417

  Charge       = 1
  Multiplicity = 1
  Electrons    = 56
  Nalpha       = 28
  Nbeta        = 28

  ==> Algorithm <==

  SCF Algorithm Type is DF.
  DIIS enabled.
  MOM disabled.
  Fractional occupation disabled.
  Guess Type is READ.
  Energy threshold   = 1.00e-08
  Density threshold  = 1.00e-08
  Integral threshold = 1.00e-12

  ==> Primary Basis <==

  Basis Set: DEF2-TZVPPD
    Blend: DEF2-TZVPPD
    Number of shells: 51
    Number of basis functions: 177
    Number of Cartesian functions: 222
    Spherical Harmonics?: true
    Max angular momentum: 4

  Core potential: DEF2-TZVPPD
    Number of shells: 12
    Number of ECP primitives: 42
    Number of ECP core electrons: 180
    Max angular momentum: 3

  ==> DFT Potential <==

   => Composite Functional: SCAN-D3BJ <= 

    SCAN Meta-GGA XC Functional
(10.1103/PhysRevLett.115.036402)
    J. Sun, A. Ruzsinszky, J. P. Perdew  Phys. Rev. Lett. 115, 036402, 2015


    Deriv               =              1
    GGA                 =           TRUE
    Meta                =           TRUE

    Exchange Hybrid     =          FALSE
    MP2 Hybrid          =          FALSE

   => Exchange Functionals <=

    1.0000   XC_MGGA_X_SCAN

   => Correlation Functionals <=

    1.0000   XC_MGGA_C_SCAN

   => LibXC Density Thresholds  <==

    XC_MGGA_C_SCAN:  1.00E-15 
    XC_MGGA_X_SCAN:  1.00E-15 

   => Molecular Quadrature <=

    Radial Scheme          =       TREUTLER
    Pruning Scheme         =           NONE
    Nuclear Scheme         =       TREUTLER

    BS radius alpha        =              1
    Pruning alpha          =              1
    Radial Points          =             75
    Spherical Points       =            302
    Total Points           =          63842
    Total Blocks           =            606
    Max Points             =            255
    Max Functions          =            170
    Weights Tolerance      =       1.00E-15

   => Loading Basis Set <=

    Name: (DEF2-TZVPPD AUX)
    Role: JKFIT
    Keyword: DF_BASIS_SCF
    atoms 1-3 entry AU         line  8426 file /mnt/storage/home/zw18965/.conda/envs/p4env/share/psi4/basis/def2-universal-jkfit.gbs 

   => Loading Basis Set <=

    Name: DEF2-TZVPPD
    Role: ORBITAL
    Keyword: BASIS
    atoms 1-3 entry AU         line  2995 (ECP: line  4084) file /mnt/storage/home/zw18965/.conda/envs/p4env/share/psi4/basis/def2-tzvppd.gbs 

    !!!  WARNING: ECP capability is in beta. Please check occupations closely.  !!!

  Reading orbitals from file /tmp/Au03C1_LIN.default.23204.180.npy, no projection.

  ==> Integral Setup <==

  DFHelper Memory: AOs need 0.179 GiB; user supplied 83.249 GiB. Using in-core AOs.

  ==> MemDFJK: Density-Fitted J/K Matrices <==

    J tasked:                   Yes
    K tasked:                    No
    wK tasked:                   No
    OpenMP threads:              28
    Memory [MiB]:             85247
    Algorithm:                 Core
    Schwarz Cutoff:           1E-12
    Mask sparsity (%):       8.1267
    Fitting Condition:        1E-10

   => Auxiliary Basis Set <=

  Basis Set: (DEF2-TZVPPD AUX)
    Blend: DEF2-UNIVERSAL-JKFIT
    Number of shells: 153
    Number of basis functions: 741
    Number of Cartesian functions: 1095
    Spherical Harmonics?: true
    Max angular momentum: 6

  Cached 100.0% of DFT collocation blocks in 0.570 [GiB].

  Minimum eigenvalue in the overlap matrix is 8.1950224436E-04.
  Reciprocal condition number of the overlap matrix is 1.8641144634E-04.
    Using symmetric orthogonalization.

  ==> Pre-Iterations <==

  SCF Guess: Orbitals guess was supplied from a previous computation.

   -------------------------------------------------------
    Irrep   Nso     Nmo     Nalpha   Nbeta   Ndocc  Nsocc
   -------------------------------------------------------
     Ag        39      39       8       8       8       0
     B1g       12      12       2       2       2       0
     B2g       19      19       3       3       3       0
     B3g       19      19       3       3       3       0
     Au         9       9       1       1       1       0
     B1u       33      33       5       5       5       0
     B2u       23      23       3       3       3       0
     B3u       23      23       3       3       3       0
   -------------------------------------------------------
    Total     177     177      28      28      28       0
   -------------------------------------------------------

  ==> Iterations <==

                           Total Energy        Delta E     RMS |[F,P]|

   @DF-RKS iter   0:  -407.02556206126218   -4.07026e+02   2.66891e-04 
   @DF-RKS iter   1:  -407.02524066156707    3.21400e-04   8.01240e-06 DIIS
   @DF-RKS iter   2:  -407.02524063230550    2.92616e-08   1.01381e-05 DIIS
   @DF-RKS iter   3:  -407.02524079213418   -1.59829e-07   4.17638e-06 DIIS
   @DF-RKS iter   4:  -407.02524082690161   -3.47674e-08   4.42889e-07 DIIS
   @DF-RKS iter   5:  -407.02524082715649   -2.54886e-10   2.69395e-07 DIIS
   @DF-RKS iter   6:  -407.02524082727200   -1.15506e-10   1.93606e-08 DIIS
   @DF-RKS iter   7:  -407.02524082727263   -6.25278e-13   5.09690e-09 DIIS
  Energy and wave function converged.


  ==> Post-Iterations <==

   Electrons on quadrature grid:
      Ntotal   =   55.9999928258 ; deviation = -7.174e-06 

    Orbital Energies [Eh]
    ---------------------

    Doubly Occupied:                                                      

       1Ag    -4.312674     1B1u   -4.312669     2Ag    -4.278317  
       2B1u   -2.500882     3Ag    -2.499711     1B2u   -2.493457  
       1B3u   -2.493457     1B3g   -2.493449     1B2g   -2.493449  
       3B1u   -2.467898     2B2u   -2.453519     2B3u   -2.453519  
       4Ag    -0.565145     2B2g   -0.508486     2B3g   -0.508486  
       4B1u   -0.494166     3B3u   -0.485786     3B2u   -0.485786  
       5Ag    -0.477268     1B1g   -0.477191     5B1u   -0.476128  
       1Au    -0.476052     6Ag    -0.443686     7Ag    -0.431269  
       2B1g   -0.431175     3B3g   -0.425474     3B2g   -0.425474  
       8Ag    -0.414376  

    Virtual:                                                              

       6B1u   -0.410608     9Ag    -0.295723     4B3u   -0.208086  
       4B2u   -0.208086     7B1u   -0.186571     4B3g   -0.158208  
       4B2g   -0.158208     5B2u   -0.083234     5B3u   -0.083234  
      10Ag    -0.049437     8B1u   -0.023984    11Ag    -0.017066  
       6B3u    0.024987     6B2u    0.024987     9B1u    0.029838  
       5B2g    0.058698     5B3g    0.058698    12Ag     0.071777  
       7B3u    0.100485     7B2u    0.100485    13Ag     0.103669  
       3B1g    0.103671    14Ag     0.129091    10B1u    0.137103  
       2Au     0.137105     6B3g    0.162065     6B2g    0.162065  
      11B1u    0.173513    15Ag     0.230354     4B1g    0.230360  
      12B1u    0.233305     8B3u    0.262480     8B2u    0.262480  
      16Ag     0.352069     7B2g    0.386157     7B3g    0.386157  
      13B1u    0.419084    17Ag     0.489323    14B1u    0.621938  
       9B3u    0.725199     9B2u    0.725199    18Ag     0.828445  
      15B1u    0.832492     3Au     0.832565     8B2g    0.844366  
       8B3g    0.844366    10B3u    0.866120    10B2u    0.866120  
      11B2u    0.901029    11B3u    0.901029     9B3g    0.903444  
       9B2g    0.903444    19Ag     0.913821     5B1g    0.913892  
      12B2u    0.930488    12B3u    0.930488    13B3u    0.953810  
      13B2u    0.953810    16B1u    0.993312    17B1u    1.015272  
       4Au     1.015358    10B2g    1.042990    10B3g    1.042990  
      20Ag     1.061869    14B2u    1.191330    14B3u    1.191330  
      11B3g    1.222013    11B2g    1.222013    18B1u    1.227487  
       6B1g    1.252338    21Ag     1.252378    19B1u    1.262926  
       5Au     1.264587    20B1u    1.264624    22Ag     1.312558  
       7B1g    1.337746    23Ag     1.337804    15B2u    1.424832  
      15B3u    1.424832    12B3g    1.514810    12B2g    1.514810  
      21B1u    1.681488    24Ag     1.867648    25Ag     1.937699  
      22B1u    2.236873    26Ag     2.602871    16B3u    3.284442  
      16B2u    3.284442    23B1u    3.313718     6Au     3.313890  
      17B2u    3.371809    17B3u    3.371809    13B3g    3.374450  
      13B2g    3.374450    27Ag     3.379174     8B1g    3.379333  
      18B2u    3.413767    18B3u    3.413767    14B2g    3.444036  
      14B3g    3.444036    24B1u    3.484160     7Au     3.484340  
      25B1u    3.522605    28Ag     3.603798    19B3u    3.692190  
      19B2u    3.692190    26B1u    3.806402    15B2g    3.937001  
      15B3g    3.937001    29Ag     3.939917     9B1g    3.940266  
      30Ag     3.940448    16B2g    3.944422    16B3g    3.944422  
      20B3u    3.944503    20B2u    3.944503     8Au     3.945132  
      27B1u    3.945321    28B1u    3.947237    31Ag     3.947237  
      10B1g    3.947902     9Au     3.947902    11B1g    3.982311  
      32Ag     3.982418    17B2g    3.985435    17B3g    3.985435  
      33Ag     3.995082    12B1g    3.996006    21B3u    4.022417  
      21B2u    4.022417    18B2g    4.048275    18B3g    4.048275  
      34Ag     4.266856    29B1u    4.292009    22B2u   27.148639  
      22B3u   27.148639    19B3g   27.465096    19B2g   27.465096  
      23B3u   27.714336    23B2u   27.714336    30B1u   28.052369  
      35Ag    28.391909    31B1u   31.250218    36Ag    43.889809  
      32B1u   44.176677    37Ag    44.602405    38Ag   204.982044  
      33B1u  205.101533    39Ag   205.296362  

    Final Occupation by Irrep:
             Ag   B1g   B2g   B3g    Au   B1u   B2u   B3u 
    DOCC [     8,    2,    3,    3,    1,    5,    3,    3 ]

[...]
   @DF-RKS iter   5:  -407.02480715397212   -1.61596e-03   3.75580e-04 DIIS
   @DF-RKS iter   6:  -407.02521201066884   -4.04857e-04   9.47415e-05 DIIS
   @DF-RKS iter   7:  -407.02524083863364   -2.88280e-05   8.59562e-06 DIIS
   @DF-RKS iter   8:  -407.02524120544359   -3.66810e-07   1.19156e-06 DIIS
   @DF-RKS iter   9:  -407.02524120994002   -4.49643e-09   2.46172e-07 DIIS
   @DF-RKS iter  10:  -407.02524121001596   -7.59428e-11   1.87494e-07 DIIS
   @DF-RKS iter  11:  -407.02524121012340   -1.07434e-10   7.97341e-09 DIIS
  Energy and wave function converged.


  ==> Post-Iterations <==

   Electrons on quadrature grid:
      Ntotal   =   55.9999927317 ; deviation = -7.268e-06 

    Orbital Energies [Eh]
    ---------------------

    Doubly Occupied:                                                      

       1A1    -4.312642     1B2    -4.312637     2A1    -4.278274  
       2B2    -2.500835     3A1    -2.499672     4A1    -2.493427  
       1B1    -2.493427     3B2    -2.493419     1A2    -2.493419  
       4B2    -2.467851     5A1    -2.453482     2B1    -2.453482  
       6A1    -0.564995     5B2    -0.508389     2A2    -0.508389  
       6B2    -0.494117     7A1    -0.485743     3B1    -0.485743  
       8A1    -0.477237     4B1    -0.477160     7B2    -0.476102  
       3A2    -0.476025     9A1    -0.443659    10A1    -0.431242  
       5B1    -0.431148     8B2    -0.425485     4A2    -0.425485  
      11A1    -0.414366  

    Virtual:                                                              

       9B2    -0.410586    12A1    -0.295767    13A1    -0.208055  
       6B1    -0.208055    10B2    -0.186595    11B2    -0.158213  
       5A2    -0.158213    14A1    -0.083271     7B1    -0.083271  
      15A1    -0.049498    12B2    -0.023981    16A1    -0.017051  
      17A1     0.025008     8B1     0.025008    13B2     0.029830  
       6A2     0.058697    14B2     0.058697    18A1     0.071709  
      19A1     0.100473     9B1     0.100473    20A1     0.103685  
      10B1     0.103686    21A1     0.129029    15B2     0.137113  
       7A2     0.137116    16B2     0.162026     8A2     0.162026  
      17B2     0.173453    22A1     0.230328    11B1     0.230334  
      18B2     0.233229    23A1     0.262405    12B1     0.262405  
      24A1     0.352011    19B2     0.386074     9A2     0.386074  
      20B2     0.418991    25A1     0.489352    21B2     0.622066  
      26A1     0.725443    13B1     0.725443    27A1     0.828352  
      22B2     0.832674    10A2     0.832746    23B2     0.844451  
      11A2     0.844451    14B1     0.866073    28A1     0.866073  
      29A1     0.901065    15B1     0.901065    24B2     0.903467  
      12A2     0.903467    30A1     0.913828    16B1     0.913898  
      31A1     0.930428    17B1     0.930428    32A1     0.953824  
      18B1     0.953824    25B2     0.993238    26B2     1.015127  
      13A2     1.015213    14A2     1.042916    27B2     1.042916  
      33A1     1.061646    19B1     1.191195    34A1     1.191195  
      28B2     1.222073    15A2     1.222073    29B2     1.227476  
      20B1     1.252395    35A1     1.252435    30B2     1.262757  
      16A2     1.264605    31B2     1.264642    36A1     1.312476  
      21B1     1.337724    37A1     1.337782    22B1     1.424494  
      38A1     1.424494    32B2     1.514547    17A2     1.514547  
      33B2     1.680747    39A1     1.867225    40A1     1.937379  
      34B2     2.236437    41A1     2.602373    23B1     3.284370  
      42A1     3.284370    35B2     3.313858    18A2     3.314030  
      43A1     3.371850    24B1     3.371850    36B2     3.374477  
      19A2     3.374477    44A1     3.379201    25B1     3.379360  
      45A1     3.413788    26B1     3.413788    37B2     3.444030  
      20A2     3.444030    38B2     3.484027    21A2     3.484206  
      39B2     3.522019    46A1     3.603794    27B1     3.692071  
      47A1     3.692071    40B2     3.806657    41B2     3.937080  
      22A2     3.937080    48A1     3.940097    28B1     3.940315  
      49A1     3.940495    42B2     3.944454    23A2     3.944454  
      50A1     3.944534    29B1     3.944534    24A2     3.945141  
      43B2     3.945327    44B2     3.947262    51A1     3.947262  
      30B1     3.947929    25A2     3.947929    31B1     3.982320  
      52A1     3.982427    26A2     3.985475    45B2     3.985475  
      53A1     3.995114    32B1     3.996040    33B1     4.022003  
      54A1     4.022003    46B2     4.047975    27A2     4.047975  
      55A1     4.265877    47B2     4.291210    34B1    27.148844  
      56A1    27.148844    48B2    27.464954    28A2    27.464954  
      57A1    27.713727    35B1    27.713727    49B2    28.051709  
      58A1    28.388185    50B2    31.241310    59A1    43.889696  
      51B2    44.176251    60A1    44.601882    61A1   204.982019  
      52B2   205.101368    62A1   205.296166  

    Final Occupation by Irrep:
             A1    A2    B1    B2 
    DOCC [    11,    4,    5,    8 ]

  @DF-RKS Final Energy:  -407.02524121012340

   => Energetics <=

    Nuclear Repulsion Energy =            186.7874858913421292
    One-Electron Energy =               -1078.0155085799274275
    Two-Electron Energy =                 522.6256918406600107
    DFT Exchange-Correlation Energy =     -38.4223640921981513
    Empirical Dispersion Energy =          -0.0005462700000000
    VV10 Nonlocal Energy =                  0.0000000000000000
    Total Energy =                       -407.0252412101233972

Computation Completed


Properties will be evaluated at   0.000000,   0.000000,   0.000000 [a0]

Properties computed using the SCF density matrix

  Nuclear Dipole Moment: [e a0]
     X:     0.0000      Y:     0.0000      Z:     0.0000

  Electronic Dipole Moment: [e a0]
     X:    -0.0001      Y:     0.0000      Z:     0.0000

  Dipole Moment: [e a0]
     X:    -0.0001      Y:     0.0000      Z:     0.0000     Total:     0.0001

  Dipole Moment: [D]
     X:    -0.0003      Y:     0.0000      Z:     0.0000     Total:     0.0003


*** tstop() called on compute286.bc4.acrc.priv at Fri Nov  5 10:11:11 2021
Module time:
	user time   =      93.96 seconds =       1.57 minutes
	system time =       2.29 seconds =       0.04 minutes
	total time  =          9 seconds =       0.15 minutes
Total time:
	user time   =   19506.50 seconds =     325.11 minutes
	system time =     213.82 seconds =       3.56 minutes
	total time  =       3065 seconds =      51.08 minutes

*** tstart() called on compute286.bc4.acrc.priv
*** at Fri Nov  5 10:11:11 2021


         ------------------------------------------------------------
                                   SCF GRAD                          
                          Rob Parrish, Justin Turney,                
                       Andy Simmonett, and Alex Sokolov              
         ------------------------------------------------------------

  ==> Geometry <==

    Molecular point group: c2v
    Full point group: C2v

    Geometry (in Angstrom), charge = 1, multiplicity = 1:

       Center              X                  Y                   Z               Mass       
    ------------   -----------------  -----------------  -----------------  -----------------
         AU          -0.000153932119     0.000000000000     0.000000000000   196.966568790000
         AU           0.000076966060     0.000000000000     2.556822416624   196.966568790000
         AU           0.000076966060     0.000000000000    -2.556822416624   196.966568790000

  Nuclear repulsion =  186.787485891342129

  ==> Basis Set <==

  Basis Set: DEF2-TZVPPD
    Blend: DEF2-TZVPPD
    Number of shells: 51
    Number of basis functions: 177
    Number of Cartesian functions: 222
    Spherical Harmonics?: true
    Max angular momentum: 4

  Core potential: DEF2-TZVPPD
    Number of shells: 12
    Number of ECP primitives: 42
    Number of ECP core electrons: 180
    Max angular momentum: 3

  ==> DFJKGrad: Density-Fitted SCF Gradients <==

    Gradient:                    1
    J tasked:                  Yes
    K tasked:                   No
    wK tasked:                  No
    OpenMP threads:             28
    Integrals threads:          28
    Memory [MiB]:            85830
    Schwarz Cutoff:          1E-12
    Fitting Condition:       1E-10

   => Auxiliary Basis Set <=

  Basis Set: (DEF2-TZVPPD AUX)
    Blend: DEF2-UNIVERSAL-JKFIT
    Number of shells: 153
    Number of basis functions: 741
    Number of Cartesian functions: 1095
    Spherical Harmonics?: true
    Max angular momentum: 6

  ==> DFT Potential <==

   => Composite Functional: SCAN-D3BJ <= 

    SCAN Meta-GGA XC Functional
(10.1103/PhysRevLett.115.036402)
    J. Sun, A. Ruzsinszky, J. P. Perdew  Phys. Rev. Lett. 115, 036402, 2015


    Deriv               =              1
    GGA                 =           TRUE
    Meta                =           TRUE

    Exchange Hybrid     =          FALSE
    MP2 Hybrid          =          FALSE

   => Exchange Functionals <=

    1.0000   XC_MGGA_X_SCAN

   => Correlation Functionals <=

    1.0000   XC_MGGA_C_SCAN

   => LibXC Density Thresholds  <==

    XC_MGGA_C_SCAN:  1.00E-15 
    XC_MGGA_X_SCAN:  1.00E-15 

   => Molecular Quadrature <=

    Radial Scheme          =       TREUTLER
    Pruning Scheme         =           NONE
    Nuclear Scheme         =       TREUTLER

    BS radius alpha        =              1
    Pruning alpha          =              1
    Radial Points          =             75
    Spherical Points       =            302
    Total Points           =          63850
    Total Blocks           =            606
    Max Points             =            253
    Max Functions          =            170
    Weights Tolerance      =       1.00E-15


  -Total Gradient:
     Atom            X                  Y                   Z
    ------   -----------------  -----------------  -----------------
       1        0.000011988907     0.000000000000     0.000000000000
       2       -0.000005085243     0.000000000000    -0.048312344439
       3       -0.000005085243     0.000000000000     0.048312344439


*** tstop() called on compute286.bc4.acrc.priv at Fri Nov  5 10:11:20 2021
Module time:
	user time   =      52.25 seconds =       0.87 minutes
	system time =       1.54 seconds =       0.03 minutes
	total time  =          9 seconds =       0.15 minutes
Total time:
	user time   =   19561.73 seconds =     326.03 minutes
	system time =     215.50 seconds =       3.59 minutes
	total time  =       3074 seconds =      51.23 minutes


  ==> Adding ECP gradient terms (computed numerically) <==

  -ECP Gradient:
     Atom            X                  Y                   Z
    ------   -----------------  -----------------  -----------------
       1        0.000006745324     0.000000000000     0.000000000000
       2       -0.000003381079     0.000000000000     0.048156395538
       3       -0.000003381079     0.000000000000    -0.048156395538


  -Total Gradient:
     Atom            X                  Y                   Z
    ------   -----------------  -----------------  -----------------
       1        0.000018734231     0.000000000000     0.000000000000
       2       -0.000008466322     0.000000000000    -0.000155948902
       3       -0.000008466322     0.000000000000     0.000155948902


         ----------------------------------------------------------
                                   FINDIF
                     R. A. King and Jonathon Misiewicz
         ---------------------------------------------------------

  Computing second-derivative from gradients using projected, 
  symmetry-adapted, cartesian coordinates.

  6 gradients passed in, including the reference geometry.
  Generating complete list of displacements from unique ones.

    Operation 3 takes plus displacements of irrep B1u to minus ones.
    Operation 2 takes plus displacements of irrep B2u to minus ones.
    Operation 2 takes plus displacements of irrep B3u to minus ones.

-------------------------------------------------------------


  ==> Harmonic Vibrational Analysis <==

  non-mass-weighted Hessian:       Symmetric? True   Hermitian? True   Lin Dep Dim?  5 (0)
  projection of translations (True) and rotations (True) removed 5 degrees of freedom (5)
  total projector:                 Symmetric? True   Hermitian? True   Lin Dep Dim?  5 (5)
  mass-weighted Hessian:           Symmetric? True   Hermitian? True   Lin Dep Dim?  5 (0)
  pre-proj  low-frequency mode:    0.0000i [cm^-1]
  pre-proj  low-frequency mode:    0.0000i [cm^-1]
  pre-proj  low-frequency mode:    0.0000i [cm^-1]
  pre-proj  low-frequency mode:    0.0000i [cm^-1]
  pre-proj  low-frequency mode:    0.0000i [cm^-1]
  pre-proj  low-frequency mode:    0.0000i [cm^-1]
  pre-proj  low-frequency mode:    0.0000i [cm^-1]
  pre-proj  low-frequency mode:    0.0000  [cm^-1]
  pre-proj  all modes:['268.6279i' '91.4532i' '91.4507i' '0.0000i' '0.0000i' '0.0000i' '0.0000i'
 '0.0000' '165.8898']
  projected mass-weighted Hessian: Symmetric? True   Hermitian? True   Lin Dep Dim?  5 (5)
  post-proj low-frequency mode:  268.6279i [cm^-1] (V)
  post-proj low-frequency mode:   91.4532i [cm^-1] (V)
  post-proj low-frequency mode:   91.4507i [cm^-1] (V)
  post-proj low-frequency mode:    0.0000i [cm^-1] (TR)
  post-proj low-frequency mode:    0.0000i [cm^-1] (TR)
  post-proj low-frequency mode:    0.0000  [cm^-1] (TR)
  post-proj low-frequency mode:    0.0000  [cm^-1] (TR)
  post-proj low-frequency mode:    0.0000  [cm^-1] (TR)
  post-proj  all modes:['268.6279i' '91.4532i' '91.4507i' '0.0000i' '0.0000i' '0.0000' '0.0000'
 '0.0000' '165.8898']

  Vibration                       1                   2                   3           
  Freq [cm^-1]                268.6279i            91.4532i            91.4507i       
  Irrep                           Ag                 B2u                 B3u          
  Reduced mass [u]             196.9666            196.9666            196.9666       
  Force const [mDyne/A]        -8.3742             -0.9706             -0.9705        
  Turning point v=0 [a0]        0.0000              0.0000              0.0000        
  RMS dev v=0 [a0 u^1/2]        0.0000              0.0000              0.0000        
  Char temp [K]                 0.0000              0.0000              0.0000        
  ----------------------------------------------------------------------------------
      1   AU               0.00 -0.00 -0.00    0.00  0.82  0.00    0.82  0.00  0.00   
      2   AU              -0.00 -0.00  0.71   -0.00 -0.41  0.00   -0.41 -0.00  0.00   
      3   AU               0.00  0.00 -0.71   -0.00 -0.41  0.00   -0.41  0.00  0.00   

  Vibration                       9           
  Freq [cm^-1]                 165.8898       
  Irrep                          B1u          
  Reduced mass [u]             196.9666       
  Force const [mDyne/A]         3.1936        
  Turning point v=0 [a0]        0.0607        
  RMS dev v=0 [a0 u^1/2]        0.6024        
  Char temp [K]                238.6785       
  ----------------------------------------------------------------------------------
      1   AU               0.00  0.00  0.82   
      2   AU               0.00  0.00 -0.41   
      3   AU              -0.00 -0.00 -0.41   

  ==> Thermochemistry Components <==

  Entropy, S
    Electronic S            0.000 [cal/(mol K)]        0.000 [J/(mol K)]       0.00000000 [mEh/K] (multiplicity = 1)
    Translational S        45.013 [cal/(mol K)]      188.336 [J/(mol K)]       0.07173329 [mEh/K] (mol. weight = 590.8997 [u], P = 101325.00 [Pa])
    Rotational S           21.203 [cal/(mol K)]       88.712 [J/(mol K)]       0.03378849 [mEh/K] (symmetry no. = 2)
    Vibrational S           2.482 [cal/(mol K)]       10.383 [J/(mol K)]       0.00395459 [mEh/K]
  Total S                  68.697 [cal/(mol K)]      287.430 [J/(mol K)]       0.10947637 [mEh/K]
  Correction S              0.000 [cal/(mol K)]        0.000 [J/(mol K)]       0.00000000 [mEh/K]

  Constant volume heat capacity, Cv
    Electronic Cv           0.000 [cal/(mol K)]        0.000 [J/(mol K)]       0.00000000 [mEh/K]
    Translational Cv        2.981 [cal/(mol K)]       12.472 [J/(mol K)]       0.00475022 [mEh/K]
    Rotational Cv           1.987 [cal/(mol K)]        8.314 [J/(mol K)]       0.00316681 [mEh/K]
    Vibrational Cv          1.884 [cal/(mol K)]        7.884 [J/(mol K)]       0.00300297 [mEh/K]
  Total Cv                  6.852 [cal/(mol K)]       28.670 [J/(mol K)]       0.01092000 [mEh/K]
  Correction Cv             0.000 [cal/(mol K)]        0.000 [J/(mol K)]       0.00000000 [mEh/K]

  Constant pressure heat capacity, Cp
    Electronic Cp           0.000 [cal/(mol K)]        0.000 [J/(mol K)]       0.00000000 [mEh/K]
    Translational Cp        4.968 [cal/(mol K)]       20.786 [J/(mol K)]       0.00791703 [mEh/K]
    Rotational Cp           1.987 [cal/(mol K)]        8.314 [J/(mol K)]       0.00316681 [mEh/K]
    Vibrational Cp          1.884 [cal/(mol K)]        7.884 [J/(mol K)]       0.00300297 [mEh/K]
  Total Cp                  8.840 [cal/(mol K)]       36.985 [J/(mol K)]       0.01408681 [mEh/K]
  Correction Cp             0.000 [cal/(mol K)]        0.000 [J/(mol K)]       0.00000000 [mEh/K]

  ==> Thermochemistry Energy Analysis <==

  Raw electronic energy, E0
  Total E0, Electronic energy at well bottom at 0 [K]                 -407.02524120 [Eh]

  Zero-point energy, ZPE_vib = Sum_i nu_i / 2
    Electronic ZPE          0.000 [kcal/mol]        0.000 [kJ/mol]       0.00000000 [Eh]
    Translational ZPE       0.000 [kcal/mol]        0.000 [kJ/mol]       0.00000000 [Eh]
    Rotational ZPE          0.000 [kcal/mol]        0.000 [kJ/mol]       0.00000000 [Eh]
    Vibrational ZPE         0.237 [kcal/mol]        0.992 [kJ/mol]       0.00037792 [Eh]          82.945 [cm^-1]
  Correction ZPE            0.237 [kcal/mol]        0.992 [kJ/mol]       0.00037792 [Eh]          82.945 [cm^-1]
  Total ZPE, Electronic energy at 0 [K]                               -407.02486328 [Eh]

  Thermal Energy, E (includes ZPE)
    Electronic E            0.000 [kcal/mol]        0.000 [kJ/mol]       0.00000000 [Eh]
    Translational E         0.889 [kcal/mol]        3.718 [kJ/mol]       0.00141628 [Eh]
    Rotational E            0.592 [kcal/mol]        2.479 [kJ/mol]       0.00094418 [Eh]
    Vibrational E           0.624 [kcal/mol]        2.610 [kJ/mol]       0.00099408 [Eh]
  Correction E              2.105 [kcal/mol]        8.807 [kJ/mol]       0.00335454 [Eh]
  Total E, Electronic energy at  298.15 [K]                           -407.02188666 [Eh]

  Enthalpy, H_trans = E_trans + k_B * T
    Electronic H            0.000 [kcal/mol]        0.000 [kJ/mol]       0.00000000 [Eh]
    Translational H         1.481 [kcal/mol]        6.197 [kJ/mol]       0.00236046 [Eh]
    Rotational H            0.592 [kcal/mol]        2.479 [kJ/mol]       0.00094418 [Eh]
    Vibrational H           0.624 [kcal/mol]        2.610 [kJ/mol]       0.00099408 [Eh]
  Correction H              2.697 [kcal/mol]       11.286 [kJ/mol]       0.00429872 [Eh]
  Total H, Enthalpy at  298.15 [K]                                    -407.02094248 [Eh]

  Gibbs free energy, G = H - T * S
    Electronic G            0.000 [kcal/mol]        0.000 [kJ/mol]       0.00000000 [Eh]
    Translational G       -11.940 [kcal/mol]      -49.955 [kJ/mol]      -0.01902682 [Eh]
    Rotational G           -5.729 [kcal/mol]      -23.970 [kJ/mol]      -0.00912985 [Eh]
    Vibrational G          -0.116 [kcal/mol]       -0.486 [kJ/mol]      -0.00018498 [Eh]
  Correction G            -17.785 [kcal/mol]      -74.411 [kJ/mol]      -0.02834166 [Eh]
  Total G, Free enthalpy at  298.15 [K]                               -407.05358286 [Eh]

    Psi4 stopped on: Friday, 05 November 2021 10:14AM
    Psi4 wall time for execution: 0:54:18.94

*** Psi4 exiting successfully. Buy a developer a beer!
