Traceback (most recent call last):
  File "/work/zw18965/.conda/envs/p4env/bin/psi4", line 287, in <module>
    exec(content)
  File "<string>", line 29, in <module>
  File "/work/zw18965/.conda/envs/p4env/lib//python3.7/site-packages/psi4/driver/driver.py", line 1052, in optimize
    G, wfn = gradient(lowername, return_wfn=True, molecule=moleculeclone, **kwargs)
  File "/work/zw18965/.conda/envs/p4env/lib//python3.7/site-packages/psi4/driver/driver.py", line 668, in gradient
    dertype = _find_derivative_type('gradient', lowername, user_dertype)
  File "/work/zw18965/.conda/envs/p4env/lib//python3.7/site-packages/psi4/driver/driver.py", line 107, in _find_derivative_type
    % (method_name, str(dertype), alternatives))

psi4.driver.p4util.exceptions.ValidationError: Derivative method 'name' scan-d3bj and derivative level 'dertype' (auto) are not available. Did you mean? scf-d3bj

Printing out the relevant lines from the Psithon --> Python processed input file:
    Au      -1.300251   -0.750700   -0.000000 
     """)
    core.IO.set_default_namespace("")
    core.set_global_option("DYNAMIC_LEVEL", 1)
    core.set_global_option("BASIS", "Def2-TZVPPD")
--> optimize("SCAN-D3BJ")
    frequencies("SCAN-D3BJ")

emory:     500.0 MiB
    Threads:    24
    
  ==> Input File <==

--------------------------------------------------------------------------
memory 144 GB

molecule {
1 1
Au       0.000000    1.501400   -0.000000 
Au       1.300251   -0.750700   -0.000000 
Au      -1.300251   -0.750700   -0.000000 
 }

set dynamic_level 1
set basis Def2-TZVPPD

optimize("SCAN-D3BJ")
frequencies("SCAN-D3BJ")
--------------------------------------------------------------------------

  Memory set to 134.110 GiB by Python driver.

Traceback (most recent call last):
  File "/work/zw18965/.conda/envs/p4env/bin/psi4", line 287, in <module>
    exec(content)
  File "<string>", line 29, in <module>
  File "/work/zw18965/.conda/envs/p4env/lib//python3.7/site-packages/psi4/driver/driver.py", line 1052, in optimize
    G, wfn = gradient(lowername, return_wfn=True, molecule=moleculeclone, **kwargs)
  File "/work/zw18965/.conda/envs/p4env/lib//python3.7/site-packages/psi4/driver/driver.py", line 668, in gradient
    dertype = _find_derivative_type('gradient', lowername, user_dertype)
  File "/work/zw18965/.conda/envs/p4env/lib//python3.7/site-packages/psi4/driver/driver.py", line 107, in _find_derivative_type
    % (method_name, str(dertype), alternatives))

psi4.driver.p4util.exceptions.ValidationError: Derivative method 'name' scan-d3bj and derivative level 'dertype' (auto) are not available. Did you mean? scf-d3bj


Printing out the relevant lines from the Psithon --> Python processed input file:
    Au      -1.300251   -0.750700   -0.000000 
     """)
    core.IO.set_default_namespace("")
    core.set_global_option("DYNAMIC_LEVEL", 1)
    core.set_global_option("BASIS", "Def2-TZVPPD")
--> optimize("SCAN-D3BJ")
    frequencies("SCAN-D3BJ")

    Psi4 stopped on: Friday, 29 October 2021 08:45AM
    Psi4 wall time for execution: 0:00:00.05

*** Psi4 encountered an error. Buy a developer more coffee!
*** Resources and help at github.com/psi4/psi4.
