
    -----------------------------------------------------------------------
          Psi4: An Open-Source Ab Initio Electronic Structure Package
                               Psi4 1.4.1 release

                         Git: Rev {HEAD} cd00f19 


    D. G. A. Smith, L. A. Burns, A. C. Simmonett, R. M. Parrish,
    M. C. Schieber, R. Galvelis, P. Kraus, H. Kruse, R. Di Remigio,
    A. Alenaizan, A. M. James, S. Lehtola, J. P. Misiewicz, M. Scheurer,
    R. A. Shaw, J. B. Schriber, Y. Xie, Z. L. Glick, D. A. Sirianni,
    J. S. O'Brien, J. M. Waldrop, A. Kumar, E. G. Hohenstein,
    B. P. Pritchard, B. R. Brooks, H. F. Schaefer III, A. Yu. Sokolov,
    K. Patkowski, A. E. DePrince III, U. Bozkaya, R. A. King,
    F. A. Evangelista, J. M. Turney, T. D. Crawford, C. D. Sherrill,
    J. Chem. Phys. 152(18) 184108 (2020). https://doi.org/10.1063/5.0006002

                            Additional Code Authors
    E. T. Seidl, C. L. Janssen, E. F. Valeev, M. L. Leininger,
    J. F. Gonthier, R. M. Richard, H. R. McAlexander, M. Saitow, X. Wang,
    P. Verma, and M. H. Lechner

             Previous Authors, Complete List of Code Contributors,
                       and Citations for Specific Modules
    https://github.com/psi4/psi4/blob/master/codemeta.json
    https://github.com/psi4/psi4/graphs/contributors
    http://psicode.org/psi4manual/master/introduction.html#citing-psifour

    -----------------------------------------------------------------------


    Psi4 started on: Friday, 05 November 2021 07:46AM

    Process ID: 21336
    Host:       compute286.bc4.acrc.priv
    PSIDATADIR: /mnt/storage/home/zw18965/.conda/envs/p4env/share/psi4
    Memory:     500.0 MiB
    Threads:    28
    
  ==> Input File <==

--------------------------------------------------------------------------
memory 120 GB

molecule {
0 2
Au       0.000000    1.515176   -0.000000 
Au       1.312181   -0.757588    0.000000 
Au      -1.312181   -0.757588   -0.000000 
 }

set reference uks
set dynamic_level 1
set basis Def2-TZVPPD

optimize("SCAN-D3BJ")
frequencies("SCAN-D3BJ")
--------------------------------------------------------------------------

  Memory set to 111.759 GiB by Python driver.

Scratch directory: /tmp/
gradient() will perform analytic gradient computation.

*** tstart() called on compute286.bc4.acrc.priv
*** at Fri Nov  5 07:46:43 2021

   => Loading Basis Set <=

    Name: DEF2-TZVPPD
    Role: ORBITAL
    Keyword: BASIS
    atoms 1-3 entry AU         line  2995 (ECP: line  4084) file /mnt/storage/home/zw18965/.conda/envs/p4env/share/psi4/basis/def2-tzvppd.gbs 

    !!!  WARNING: ECP capability is in beta. Please check occupations closely.  !!!

   => SCAN-D3(BJ): Empirical Dispersion <=

    Grimme's -D3 (BJ-damping) Dispersion Correction
    Grimme S.; Ehrlich S.; Goerigk L. (2011), J. Comput. Chem., 32: 1456
    Parametrisation from:    J.G. Brandenburg, J. E. Bates, J. Sun, J.P. Perdew, Phys. Rev. B 94, 115144, 2016

        s6 =       1.000000
        s8 =       0.000000
        a1 =       0.538000
        a2 =       5.420000


         ---------------------------------------------------------
                                   SCF
               by Justin Turney, Rob Parrish, Andy Simmonett
                          and Daniel G. A. Smith
                              UKS Reference
                       28 Threads, 114440 MiB Core
         ---------------------------------------------------------

  ==> Geometry <==

    Molecular point group: c2v
    Full point group: C2v

    Geometry (in Angstrom), charge = 0, multiplicity = 2:

       Center              X                  Y                   Z               Mass       
    ------------   -----------------  -----------------  -----------------  -----------------
         AU           0.000000000000     0.000000000000     1.515176000000   196.966568790000
         AU           1.312181000000     0.000000000000    -0.757588000000   196.966568790000
         AU          -1.312181000000    -0.000000000000    -0.757588000000   196.966568790000

  Running in c2v symmetry.

  Rotational constants: A =      0.02485  B =      0.02485  C =      0.01243 [cm^-1]
  Rotational constants: A =    745.08746  B =    745.08736  C =    372.54370 [MHz]
  Nuclear repulsion =  218.376481377175509

  Charge       = 0
  Multiplicity = 2
  Electrons    = 57
  Nalpha       = 29
  Nbeta        = 28

  ==> Algorithm <==

  SCF Algorithm Type is DF.
  DIIS enabled.
  MOM disabled.
  Fractional occupation disabled.
  Guess Type is SAD.
  Energy threshold   = 1.00e-08
  Density threshold  = 1.00e-08
  Integral threshold = 1.00e-12

  ==> Primary Basis <==

  Basis Set: DEF2-TZVPPD
    Blend: DEF2-TZVPPD
    Number of shells: 51
    Number of basis functions: 177
    Number of Cartesian functions: 222
    Spherical Harmonics?: true
    Max angular momentum: 4

  Core potential: DEF2-TZVPPD
    Number of shells: 12
    Number of ECP primitives: 42
    Number of ECP core electrons: 180
    Max angular momentum: 3

  ==> DFT Potential <==

   => Composite Functional: SCAN-D3BJ <= 

    SCAN Meta-GGA XC Functional
(10.1103/PhysRevLett.115.036402)
    J. Sun, A. Ruzsinszky, J. P. Perdew  Phys. Rev. Lett. 115, 036402, 2015


    Deriv               =              1
    GGA                 =           TRUE
    Meta                =           TRUE

    Exchange Hybrid     =          FALSE
    MP2 Hybrid          =          FALSE

   => Exchange Functionals <=

    1.0000   XC_MGGA_X_SCAN

   => Correlation Functionals <=

    1.0000   XC_MGGA_C_SCAN

   => LibXC Density Thresholds  <==

    XC_MGGA_C_SCAN:  1.00E-15 
    XC_MGGA_X_SCAN:  1.00E-15 

   => Molecular Quadrature <=

    Radial Scheme          =       TREUTLER
    Pruning Scheme         =           NONE
    Nuclear Scheme         =       TREUTLER

    BS radius alpha        =              1
    Pruning alpha          =              1
    Radial Points          =             75
    Spherical Points       =            302
    Total Points           =          64024
    Total Blocks           =            581
    Max Points             =            253
    Max Functions          =            174
    Weights Tolerance      =       1.00E-15

   => Loading Basis Set <=

    Name: (DEF2-TZVPPD AUX)
    Role: JKFIT
    Keyword: DF_BASIS_SCF
    atoms 1-3 entry AU         line  8426 file /mnt/storage/home/zw18965/.conda/envs/p4env/share/psi4/basis/def2-universal-jkfit.gbs 

  ==> Integral Setup <==

  DFHelper Memory: AOs need 0.192 GiB; user supplied 83.194 GiB. Using in-core AOs.

  ==> MemDFJK: Density-Fitted J/K Matrices <==

    J tasked:                   Yes
    K tasked:                    No
    wK tasked:                   No
    OpenMP threads:              28
    Memory [MiB]:             85190
    Algorithm:                 Core
    Schwarz Cutoff:           1E-12
    Mask sparsity (%):       0.5107
    Fitting Condition:        1E-10

   => Auxiliary Basis Set <=

  Basis Set: (DEF2-TZVPPD AUX)
    Blend: DEF2-UNIVERSAL-JKFIT
    Number of shells: 153
    Number of basis functions: 741
    Number of Cartesian functions: 1095
    Spherical Harmonics?: true
    Max angular momentum: 6

  Cached 100.0% of DFT collocation blocks in 0.625 [GiB].

  Minimum eigenvalue in the overlap matrix is 1.4400403070E-03.
  Reciprocal condition number of the overlap matrix is 2.7878334400E-04.
    Using symmetric orthogonalization.

  ==> Pre-Iterations <==

  SCF Guess: Superposition of Atomic Densities via on-the-fly atomic UHF (no occupation information).

   -------------------------
    Irrep   Nso     Nmo    
   -------------------------
     A1        62      62 
     A2        28      28 
     B1        52      52 
     B2        35      35 
   -------------------------
    Total     177     177
   -------------------------

  ==> Iterations <==

                           Total Energy        Delta E     RMS |[F,P]|

   @DF-UKS iter SAD:  -406.70784916521939   -4.06708e+02   0.00000e+00 
   @DF-UKS iter   1:  -407.21103071767402   -5.03182e-01   6.52401e-03 DIIS
   @DF-UKS iter   2:  -405.71320893050381    1.49782e+00   2.09834e-02 DIIS
   @DF-UKS iter   3:  -407.18827663699938   -1.47507e+00   6.15475e-03 DIIS
   @DF-UKS iter   4:  -407.35318935881685   -1.64913e-01   9.64826e-04 DIIS
   @DF-UKS iter   5:  -407.35518071905710   -1.99136e-03   6.74458e-04 DIIS
   @DF-UKS iter   6:  -407.35651287099824   -1.33215e-03   1.61996e-04 DIIS
   @DF-UKS iter   7:  -407.35666161684492   -1.48746e-04   5.58952e-05 DIIS
   @DF-UKS iter   8:  -407.35668662627108   -2.50094e-05   3.25165e-05 DIIS
   @DF-UKS iter   9:  -407.35669315291591   -6.52664e-06   1.94174e-05 DIIS
   @DF-UKS iter  10:  -407.35669701703421   -3.86412e-06   4.88016e-06 DIIS
   @DF-UKS iter  11:  -407.35669727528682   -2.58253e-07   2.53436e-06 DIIS
   @DF-UKS iter  12:  -407.35669732156759   -4.62808e-08   8.70531e-07 DIIS
   @DF-UKS iter  13:  -407.35669732687199   -5.30440e-09   2.45504e-07 DIIS
   @DF-UKS iter  14:  -407.35669732749272   -6.20730e-10   6.06444e-08 DIIS
   @DF-UKS iter  15:  -407.35669732753206   -3.93356e-11   1.71196e-08 DIIS
   @DF-UKS iter  16:  -407.35669732753445   -2.38742e-12   5.15876e-09 DIIS
  Energy and wave function converged.


  ==> Post-Iterations <==

   Electrons on quadrature grid:
      Nalpha   =   28.9999944573 ; deviation = -5.543e-06
      Nbeta    =   27.9999937991 ; deviation = -6.201e-06
      Ntotal   =   56.9999882564 ; deviation = -1.174e-05 

   @Spin Contamination Metric:   4.937285166E-02
   @S^2 Expected:                7.500000000E-01
   @S^2 Observed:                7.993728517E-01
   @S   Expected:                5.000000000E-01
   @S   Observed:                5.000000000E-01

    Orbital Energies [Eh]
    ---------------------

    Alpha Occupied:                                                       

       1A1    -4.120312     1B1    -4.119965     2A1    -4.111915  
       3A1    -2.309965     2B1    -2.304207     4A1    -2.301282  
       3B1    -2.298448     1B2    -2.296487     1A2    -2.295858  
       5A1    -2.294677     4B1    -2.290676     2B2    -2.282679  
       6A1    -0.380754     7A1    -0.339690     5B1    -0.335377  
       3B2    -0.324207     8A1    -0.309959     4B2    -0.296606  
       2A2    -0.292366     9A1    -0.276948     6B1    -0.269221  
       7B1    -0.265411    10A1    -0.262532     3A2    -0.262182  
      11A1    -0.256829     4A2    -0.255173     5B2    -0.254238  
       8B1    -0.237267    12A1    -0.178601  

    Alpha Virtual:                                                        

       9B1    -0.173279     6B2    -0.062637    13A1    -0.043963  
      10B1    -0.028772    14A1    -0.024227     5A2     0.026761  
       7B2     0.027051    11B1     0.068977    15A1     0.076062  
      12B1     0.095521    16A1     0.150854    17A1     0.158288  
       8B2     0.159964    18A1     0.178768    13B1     0.179212  
       6A2     0.209582     9B2     0.219092    14B1     0.240303  
      19A1     0.247212    20A1     0.281547    15B1     0.283787  
      16B1     0.300612    21A1     0.304519    10B2     0.305254  
       7A2     0.308946    11B2     0.332196    17B1     0.380178  
      22A1     0.380607     8A2     0.413065     9A2     0.449423  
      12B2     0.450369    23A1     0.458548    18B1     0.460820  
      24A1     0.472622    19B1     0.554062    25A1     0.557171  
      20B1     0.562965    26A1     0.794875    27A1     0.887888  
      28A1     0.892906    21B1     0.894151    13B2     0.907868  
      14B2     0.978611    10A2     0.979676    15B2     1.046698  
      29A1     1.055304    22B1     1.055675    11A2     1.062036  
      16B2     1.062752    17B2     1.070342    30A1     1.098221  
      23B1     1.099453    24B1     1.125768    12A2     1.139960  
      18B2     1.146026    25B1     1.197232    31A1     1.211040  
      26B1     1.213425    13A2     1.304690    27B1     1.317156  
      32A1     1.318364    33A1     1.326424    14A2     1.345157  
      19B2     1.349265    34A1     1.369603    28B1     1.369755  
      20B2     1.423582    29B1     1.425857    35A1     1.429269  
      21B2     1.435728    15A2     1.440261    30B1     1.469057  
      36A1     1.473846    37A1     1.493321    16A2     1.554329  
      31B1     1.564372    38A1     1.566085    17A2     1.617920  
      22B2     1.617944    32B1     1.822947    39A1     1.827606  
      33B1     2.038046    40A1     2.147818    34B1     2.663391  
      41A1     2.664031    42A1     3.432646    23B2     3.465727  
      24B2     3.487052    18A2     3.487405    25B2     3.529216  
      43A1     3.545370    35B1     3.549730    19A2     3.606907  
      26B2     3.610715    36B1     3.627125    44A1     3.637709  
      37B1     3.639202    45A1     3.641704    20A2     3.763763  
      46A1     3.785890    38B1     3.788427    21A2     3.788457  
      27B2     3.789192    39B1     3.899000    47A1     3.899192  
      40B1     3.965172    41B1     4.126004    48A1     4.127046  
      49A1     4.129372    28B2     4.132487    22A2     4.132740  
      29B2     4.135447    50A1     4.138989    30B2     4.141214  
      23A2     4.141673    42B1     4.141976    51A1     4.142082  
      31B2     4.145120    24A2     4.146571    52A1     4.147143  
      32B2     4.147388    43B1     4.147467    44B1     4.153242  
      53A1     4.153816    25A2     4.153936    26A2     4.184406  
      27A2     4.191542    33B2     4.192889    45B1     4.198564  
      54A1     4.199123    46B1     4.338547    55A1     4.339624  
      47B1     4.452742    34B2    27.366065    56A1    27.545081  
      48B1    27.552537    57A1    27.654185    28A2    27.741114  
      35B2    27.754810    49B1    29.237958    50B1    29.888124  
      58A1    29.889014    59A1    44.126310    51B1    44.644810  
      60A1    44.657308    61A1   205.185958    52B1   205.409349  
      62A1   205.416184  

    Beta Occupied:                                                        

       1A1    -4.119490     1B1    -4.119148     2A1    -4.107946  
       3A1    -2.309435     2B1    -2.302894     4A1    -2.300138  
       3B1    -2.298487     1B2    -2.296536     1A2    -2.295914  
       5A1    -2.290417     4B1    -2.288464     2B2    -2.282855  
       6A1    -0.378594     7A1    -0.337777     5B1    -0.328895  
       3B2    -0.323051     8A1    -0.305252     4B2    -0.295286  
       2A2    -0.289723     9A1    -0.273089     6B1    -0.268452  
       7B1    -0.264303     3A2    -0.262979    10A1    -0.257019  
       4A2    -0.251089    11A1    -0.249421     5B2    -0.248070  
       8B1    -0.229043  

    Beta Virtual:                                                         

       9B1    -0.164067    12A1    -0.141245     6B2    -0.054441  
      13A1    -0.030299    14A1    -0.010051    10B1    -0.007121  
       5A2     0.029646     7B2     0.039883    11B1     0.069117  
      15A1     0.076094    12B1     0.100245    16A1     0.154323  
      17A1     0.156567     8B2     0.159537    18A1     0.176429  
      13B1     0.179251     6A2     0.211131     9B2     0.219830  
      14B1     0.237995    19A1     0.243318    20A1     0.285608  
      15B1     0.285996    16B1     0.305166    10B2     0.308273  
       7A2     0.313184    21A1     0.314118    11B2     0.339318  
      17B1     0.384756    22A1     0.388309     8A2     0.417980  
       9A2     0.451159    12B2     0.460107    23A1     0.463467  
      18B1     0.466226    24A1     0.477018    19B1     0.553514  
      25A1     0.560905    20B1     0.566024    26A1     0.799828  
      27A1     0.889944    21B1     0.895390    28A1     0.898038  
      13B2     0.912685    14B2     0.981245    10A2     0.988110  
      15B2     1.049967    22B1     1.058316    29A1     1.060077  
      11A2     1.061613    16B2     1.064645    17B2     1.076328  
      30A1     1.102509    23B1     1.103519    24B1     1.128681  
      12A2     1.142111    18B2     1.155171    25B1     1.201807  
      26B1     1.212843    31A1     1.218898    13A2     1.309061  
      27B1     1.319704    32A1     1.328045    33A1     1.332364  
      14A2     1.348060    19B2     1.358047    28B1     1.369485  
      34A1     1.377049    20B2     1.426270    29B1     1.430243  
      35A1     1.431858    21B2     1.440958    15A2     1.444710  
      36A1     1.470493    30B1     1.480869    37A1     1.500953  
      16A2     1.554052    31B1     1.567690    38A1     1.571181  
      17A2     1.617818    22B2     1.627140    32B1     1.824377  
      39A1     1.830311    33B1     2.042870    40A1     2.148818  
      34B1     2.662037    41A1     2.672679    42A1     3.439426  
      23B2     3.469912    24B2     3.489153    18A2     3.496489  
      25B2     3.532568    43A1     3.546676    35B1     3.554658  
      19A2     3.607619    26B2     3.617159    36B1     3.630575  
      44A1     3.637618    37B1     3.648930    45A1     3.650563  
      20A2     3.769217    38B1     3.791210    21A2     3.792788  
      46A1     3.800003    27B2     3.800986    39B1     3.903679  
      47A1     3.909679    40B1     3.974498    48A1     4.130994  
      41B1     4.134308    28B2     4.134513    49A1     4.135992  
      29B2     4.139089    22A2     4.139875    50A1     4.145064  
      23A2     4.146638    30B2     4.148351    42B1     4.149173  
      51A1     4.149842    24A2     4.150595    43B1     4.150978  
      31B2     4.152052    52A1     4.152987    32B2     4.160809  
      44B1     4.163076    25A2     4.165819    53A1     4.165925  
      26A2     4.186787    27A2     4.201969    33B2     4.204186  
      45B1     4.205604    54A1     4.210197    46B1     4.342180  
      55A1     4.349354    47B1     4.461204    34B2    27.360828  
      56A1    27.540095    48B1    27.547377    57A1    27.655558  
      28A2    27.738103    35B2    27.746777    49B1    29.233218  
      50B1    29.885749    58A1    29.897106    59A1    44.122400  
      51B1    44.643434    60A1    44.650403    61A1   205.185942  
      52B1   205.409378    62A1   205.416077  

    Final Occupation by Irrep:
             A1    A2    B1    B2 
    DOCC [    11,    4,    8,    5 ]
    SOCC [     1,    0,    0,    0 ]

  @DF-UKS Final Energy:  -407.35669732753445

   => Energetics <=

    Nuclear Repulsion Energy =            218.3764813771755087
    One-Electron Energy =               -1151.8781832635477258
    Two-Electron Energy =                 564.7680593547514718
    DFT Exchange-Correlation Energy =     -38.6224399859138714
    Empirical Dispersion Energy =          -0.0006148100000000
    VV10 Nonlocal Energy =                  0.0000000000000000
    Total Energy =                       -407.3566973275345617

  UHF NO Occupations:
  HONO-2 :   11 A1 1.9973799
  HONO-1 :    8 B1 1.9804924
  HONO-0 :   12 A1 1.0000000
  LUNO+0 :    9 B1 0.0195076
  LUNO+1 :   13 A1 0.0026201
  LUNO+2 :   10 B1 0.0008787
  LUNO+3 :   14 A1 0.0004994


Computation Completed


Properties will be evaluated at   0.000000,   0.000000,   0.000000 [a0]

Properties computed using the SCF density matrix

  Nuclear Dipole Moment: [e a0]
     X:    -0.0000      Y:    -0.0000      Z:    -0.0000

  Electronic Dipole Moment: [e a0]
     X:     0.0000      Y:     0.0000      Z:    -0.4126

  Dipole Moment: [e a0]
     X:    -0.0000      Y:    -0.0000      Z:    -0.4126     Total:     0.4126

  Dipole Moment: [D]
     X:    -0.0000      Y:    -0.0000      Z:    -1.0488     Total:     1.0488


*** tstop() called on compute286.bc4.acrc.priv at Fri Nov  5 07:47:16 2021
Module time:
	user time   =     638.13 seconds =      10.64 minutes
	system time =      25.53 seconds =       0.43 minutes
	total time  =         33 seconds =       0.55 minutes
Total time:
	user time   =     638.13 seconds =      10.64 minutes
	system time =      25.53 seconds =       0.43 minutes
	total time  =         33 seconds =       0.55 minutes

*** tstart() called on compute286.bc4.acrc.priv
*** at Fri Nov  5 07:47:16 2021


         ------------------------------------------------------------
                                   SCF GRAD                          
                          Rob Parrish, Justin Turney,                
                       Andy Simmonett, and Alex Sokolov              
         ------------------------------------------------------------

  ==> Geometry <==

    Molecular point group: c2v
    Full point group: C2v

    Geometry (in Angstrom), charge = 0, multiplicity = 2:

       Center              X                  Y                   Z               Mass       
    ------------   -----------------  -----------------  -----------------  -----------------
         AU           0.000000000000     0.000000000000     1.515176000000   196.966568790000
         AU           1.312181000000     0.000000000000    -0.757588000000   196.966568790000
         AU          -1.312181000000    -0.000000000000    -0.757588000000   196.966568790000

  Nuclear repulsion =  218.376481377175509

  ==> Basis Set <==

  Basis Set: DEF2-TZVPPD
    Blend: DEF2-TZVPPD
    Number of shells: 51
    Number of basis functions: 177
    Number of Cartesian functions: 222
    Spherical Harmonics?: true
    Max angular momentum: 4

  Core potential: DEF2-TZVPPD
    Number of shells: 12
    Number of ECP primitives: 42
    Number of ECP core electrons: 180
    Max angular momentum: 3

  ==> DFJKGrad: Density-Fitted SCF Gradients <==

    Gradient:                    1
    J tasked:                  Yes
    K tasked:                   No
    wK tasked:                  No
    OpenMP threads:             28
    Integrals threads:          28
    Memory [MiB]:            85830
    Schwarz Cutoff:          1E-12
    Fitting Condition:       1E-10

   => Auxiliary Basis Set <=

  Basis Set: (DEF2-TZVPPD AUX)
    Blend: DEF2-UNIVERSAL-JKFIT
    Number of shells: 153
    Number of basis functions: 741
    Number of Cartesian functions: 1095
    Spherical Harmonics?: true
    Max angular momentum: 6

  ==> DFT Potential <==

   => Composite Functional: SCAN-D3BJ <= 

    SCAN Meta-GGA XC Functional
(10.1103/PhysRevLett.115.036402)
    J. Sun, A. Ruzsinszky, J. P. Perdew  Phys. Rev. Lett. 115, 036402, 2015


    Deriv               =              1
    GGA                 =           TRUE
    Meta                =           TRUE

    Exchange Hybrid     =          FALSE
    MP2 Hybrid          =          FALSE

   => Exchange Functionals <=

    1.0000   XC_MGGA_X_SCAN

   => Correlation Functionals <=

    1.0000   XC_MGGA_C_SCAN

   => LibXC Density Thresholds  <==

    XC_MGGA_C_SCAN:  1.00E-15 
    XC_MGGA_X_SCAN:  1.00E-15 

   => Molecular Quadrature <=

    Radial Scheme          =       TREUTLER
    Pruning Scheme         =           NONE
    Nuclear Scheme         =       TREUTLER

    BS radius alpha        =              1
    Pruning alpha          =              1
    Radial Points          =             75
    Spherical Points       =            302
    Total Points           =          64024
    Total Blocks           =            581
    Max Points             =            253
    Max Functions          =            174
    Weights Tolerance      =       1.00E-15


  -Total Gradient:
     Atom            X                  Y                   Z
    ------   -----------------  -----------------  -----------------
       1        0.000000000000    -0.000000000000    -0.052303396118
       2       -0.045807987592    -0.000000000000     0.026161968785
       3        0.045807987592     0.000000000000     0.026161968785


*** tstop() called on compute286.bc4.acrc.priv at Fri Nov  5 07:47:28 2021
Module time:
	user time   =     103.00 seconds =       1.72 minutes
	system time =       5.97 seconds =       0.10 minutes
	total time  =         12 seconds =       0.20 minutes
Total time:
	user time   =     742.68 seconds =      12.38 minutes
	system time =      31.57 seconds =       0.53 minutes
	total time  =         45 seconds =       0.75 minutes


  ==> Adding ECP gradient terms (computed numerically) <==

  -ECP Gradient:
     Atom            X                  Y                   Z
    ------   -----------------  -----------------  -----------------
       1        0.000000000000    -0.000000000000     0.045344842619
       2        0.056788853563     0.000000000000    -0.022672421602
       3       -0.056788853563    -0.000000000000    -0.022672421602


  -Total Gradient:
     Atom            X                  Y                   Z
    ------   -----------------  -----------------  -----------------
       1        0.000000000000    -0.000000000000    -0.006958553500
       2        0.010980865971     0.000000000000     0.003489547183
       3       -0.010980865971    -0.000000000000     0.003489547183


			-----------------------------------------
			 OPTKING 2.0: for geometry optimizations 
			  - R.A. King,  Bethel University        
			-----------------------------------------
	At level 1: Red. Int., RFO, no backsteps, dynamic trust

	Internal coordinates to be generated automatically.
	Detected frag 1 with atoms:  1 2 3
	---Fragment 1 Bond Connectivity---
	 1 : 2 3
	 2 : 1 3
	 3 : 1 2

	---Fragment 1 Geometry and Gradient---
	 AU          0.0000000000        0.0000000000        2.8632676719
	 AU          2.4796627170        0.0000000000       -1.4316338359
	 AU         -2.4796627170       -0.0000000000       -1.4316338359
	             0.0000000000       -0.0000000000       -0.0069585535
	             0.0109808660        0.0000000000        0.0034895472
	            -0.0109808660       -0.0000000000        0.0034895472

	Previous optimization step data not found.  Starting new optimization.

	---Fragment 1 Intrafragment Coordinates---
	 - Coordinate -           - BOHR/RAD -       - ANG/DEG -
	 R(1,2)           =         4.959325	       2.624362
	 R(1,3)           =         4.959325	       2.624362
	 R(2,3)           =         4.959325	       2.624362
	 B(1,2,3)         =         1.047198	      59.999998
	 B(1,3,2)         =         1.047198	      59.999998
	 B(2,1,3)         =         1.047198	      60.000004

	Current energy   :      -407.3566973275

	Generating empirical Hessian (Schlegel '84) for each fragment.
	Taking RFO optimization step.
	Going to follow RFO solution 1.
	Using RFO vector 1.
	Norm of target step-size    0.14613
	Projected energy change by RFO approximation:        -0.0035856842

	Back-transformation to cartesian coordinates...
	Successfully converged to displaced geometry.

	--- Internal Coordinate Step in ANG or DEG, aJ/ANG or AJ/DEG ---
	 ---------------------------------------------------------------------------
	   Coordinate                Previous        Force       Change         New 
	   ----------                --------       ------       ------       ------
	    1 R(1,2)          =      2.624362     0.028052     0.016927     2.641289
	    2 R(1,3)          =      2.624362     0.028052     0.016927     2.641289
	    3 R(2,3)          =      2.624362    -0.096875    -0.069389     2.554973
	    4 B(1,2,3)        =     59.999998     0.000134     1.075274    61.075272
	    5 B(1,3,2)        =     59.999998     0.000134     1.075274    61.075272
	    6 B(2,1,3)        =     60.000004    -0.000269    -2.150547    57.849456
	 ---------------------------------------------------------------------------
	Successfully symmetrized geometry.

  ==> Convergence Check <==

  Measures of convergence in internal coordinates in au.
  Criteria marked as inactive (o), active & met (*), and active & unmet ( ).
  --------------------------------------------------------------------------------------------- ~
   Step     Total Energy     Delta E     MAX Force     RMS Force      MAX Disp      RMS Disp    ~
  --------------------------------------------------------------------------------------------- ~
    Convergence Criteria    1.00e-06 *    3.00e-04 *             o    1.20e-03 *             o  ~
  --------------------------------------------------------------------------------------------- ~
      1    -407.35669733   -4.07e+02      1.18e-02      5.48e-03 o    1.31e-01      5.97e-02 o  ~
  ---------------------------------------------------------------------------------------------

	Writing optimization data to binary file.
	Structure for next step:
	Cartesian Geometry (in Angstrom)
	   AU     0.0000000000   0.0000000000   1.5412023956
	   AU     1.2774862524   0.0000000000  -0.7706011978
	   AU    -1.2774862524  -0.0000000000  -0.7706011978
			--------------------------
			 OPTKING Finished Execution 
			--------------------------

    Structure for next step:
    Molecular point group: c2v
    Full point group: C2v

    Geometry (in Angstrom), charge = 0, multiplicity = 2:

    AU           0.000000000000    -0.000000000000     1.541202401672
    AU           1.277486257438     0.000000000000    -0.770601200836
    AU          -1.277486257438    -0.000000000000    -0.770601200836


Scratch directory: /tmp/
gradient() will perform analytic gradient computation.

*** tstart() called on compute286.bc4.acrc.priv
*** at Fri Nov  5 07:50:34 2021

   => Loading Basis Set <=

    Name: DEF2-TZVPPD
    Role: ORBITAL
    Keyword: BASIS
    atoms 1-3 entry AU         line  2995 (ECP: line  4084) file /mnt/storage/home/zw18965/.conda/envs/p4env/share/psi4/basis/def2-tzvppd.gbs 

    !!!  WARNING: ECP capability is in beta. Please check occupations closely.  !!!

   => SCAN-D3(BJ): Empirical Dispersion <=

    Grimme's -D3 (BJ-damping) Dispersion Correction
    Grimme S.; Ehrlich S.; Goerigk L. (2011), J. Comput. Chem., 32: 1456
    Parametrisation from:    J.G. Brandenburg, J. E. Bates, J. Sun, J.P. Perdew, Phys. Rev. B 94, 115144, 2016

        s6 =       1.000000
        s8 =       0.000000
        a1 =       0.538000
        a2 =       5.420000


         ---------------------------------------------------------
                                   SCF
               by Justin Turney, Rob Parrish, Andy Simmonett
                          and Daniel G. A. Smith
                              UKS Reference
                       28 Threads, 114440 MiB Core
         ---------------------------------------------------------

  ==> Geometry <==

    Molecular point group: c2v
    Full point group: C2v

    Geometry (in Angstrom), charge = 0, multiplicity = 2:

       Center              X                  Y                   Z               Mass       
    ------------   -----------------  -----------------  -----------------  -----------------
         AU           0.000000000000    -0.000000000000     1.541202401672   196.966568790000
         AU           1.277486257438     0.000000000000    -0.770601200836   196.966568790000
         AU          -1.277486257438    -0.000000000000    -0.770601200836   196.966568790000

  Running in c2v symmetry.

  Rotational constants: A =      0.02622  B =      0.02402  C =      0.01254 [cm^-1]
  Rotational constants: A =    786.10799  B =    720.13524  C =    375.83841 [MHz]
  Nuclear repulsion =  219.420419077558108

  Charge       = 0
  Multiplicity = 2
  Electrons    = 57
  Nalpha       = 29
  Nbeta        = 28

  ==> Algorithm <==

  SCF Algorithm Type is DF.
  DIIS enabled.
  MOM disabled.
  Fractional occupation disabled.
  Guess Type is READ.
  Energy threshold   = 1.00e-08
  Density threshold  = 1.00e-08
  Integral threshold = 1.00e-12

  ==> Primary Basis <==

  Basis Set: DEF2-TZVPPD
    Blend: DEF2-TZVPPD
    Number of shells: 51
    Number of basis functions: 177
    Number of Cartesian functions: 222
    Spherical Harmonics?: true
    Max angular momentum: 4

  Core potential: DEF2-TZVPPD
    Number of shells: 12
    Number of ECP primitives: 42
    Number of ECP core electrons: 180
    Max angular momentum: 3

  ==> DFT Potential <==

   => Composite Functional: SCAN-D3BJ <= 

    SCAN Meta-GGA XC Functional
(10.1103/PhysRevLett.115.036402)
    J. Sun, A. Ruzsinszky, J. P. Perdew  Phys. Rev. Lett. 115, 036402, 2015


    Deriv               =              1
    GGA                 =           TRUE
    Meta                =           TRUE

    Exchange Hybrid     =          FALSE
    MP2 Hybrid          =          FALSE

   => Exchange Functionals <=

    1.0000   XC_MGGA_X_SCAN

   => Correlation Functionals <=

    1.0000   XC_MGGA_C_SCAN

   => LibXC Density Thresholds  <==

    XC_MGGA_C_SCAN:  1.00E-15 
    XC_MGGA_X_SCAN:  1.00E-15 

   => Molecular Quadrature <=

    Radial Scheme          =       TREUTLER
    Pruning Scheme         =           NONE
    Nuclear Scheme         =       TREUTLER

    BS radius alpha        =              1
    Pruning alpha          =              1
    Radial Points          =             75
    Spherical Points       =            302
    Total Points           =          64046
    Total Blocks           =            578
    Max Points             =            256
    Max Functions          =            174
    Weights Tolerance      =       1.00E-15

   => Loading Basis Set <=

    Name: (DEF2-TZVPPD AUX)
    Role: JKFIT
    Keyword: DF_BASIS_SCF
    atoms 1-3 entry AU         line  8426 file /mnt/storage/home/zw18965/.conda/envs/p4env/share/psi4/basis/def2-universal-jkfit.gbs 

   => Loading Basis Set <=

    Name: DEF2-TZVPPD
    Role: ORBITAL
    Keyword: BASIS
    atoms 1-3 entry AU         line  2995 (ECP: line  4084) file /mnt/storage/home/zw18965/.conda/envs/p4env/share/psi4/basis/def2-tzvppd.gbs 

    !!!  WARNING: ECP capability is in beta. Please check occupations closely.  !!!

  Reading orbitals from file /tmp/Au03N0_D3H.default.21336.180.npy, no projection.

  ==> Integral Setup <==

  DFHelper Memory: AOs need 0.192 GiB; user supplied 83.187 GiB. Using in-core AOs.

  ==> MemDFJK: Density-Fitted J/K Matrices <==

    J tasked:                   Yes
    K tasked:                    No
    wK tasked:                   No
    OpenMP threads:              28
    Memory [MiB]:             85183
    Algorithm:                 Core
    Schwarz Cutoff:           1E-12
    Mask sparsity (%):       0.4596
    Fitting Condition:        1E-10

   => Auxiliary Basis Set <=

  Basis Set: (DEF2-TZVPPD AUX)
    Blend: DEF2-UNIVERSAL-JKFIT
    Number of shells: 153
    Number of basis functions: 741
    Number of Cartesian functions: 1095
    Spherical Harmonics?: true
    Max angular momentum: 6

  Cached 100.0% of DFT collocation blocks in 0.632 [GiB].

  Minimum eigenvalue in the overlap matrix is 1.4867168661E-03.
  Reciprocal condition number of the overlap matrix is 2.8777163980E-04.
    Using symmetric orthogonalization.

  ==> Pre-Iterations <==

  SCF Guess: Orbitals guess was supplied from a previous computation.

   -------------------------------------------------------
    Irrep   Nso     Nmo     Nalpha   Nbeta   Ndocc  Nsocc
   -------------------------------------------------------
     A1        62      62      12      11      11       1
     A2        28      28       4       4       4       0
     B1        52      52       8       8       8       0
     B2        35      35       5       5       5       0
   -------------------------------------------------------
    Total     177     177      29      28      28       1
   -------------------------------------------------------

  ==> Iterations <==

                           Total Energy        Delta E     RMS |[F,P]|

   @DF-UKS iter   0:  -407.36404200871061   -4.07364e+02   2.69153e-03 
   @DF-UKS iter   1:  -407.35724607385043    6.79593e-03   3.34463e-04 DIIS
   @DF-UKS iter   2:  -407.35214060047338    5.10547e-03   1.11719e-03 DIIS
   @DF-UKS iter   3:  -407.35771081911935   -5.57022e-03   1.11240e-04 DIIS
   @DF-UKS iter   4:  -407.35774484675335   -3.40276e-05   2.91867e-05 DIIS
   @DF-UKS iter   5:  -407.35774779892893   -2.95218e-06   7.40918e-06 DIIS
   @DF-UKS iter   6:  -407.35774797286854   -1.73940e-07   3.56744e-06 DIIS
   @DF-UKS iter   7:  -407.35774805273741   -7.98689e-08   1.35424e-06 DIIS
   @DF-UKS iter   8:  -407.35774806495544   -1.22180e-08   6.38860e-07 DIIS
   @DF-UKS iter   9:  -407.35774806994618   -4.99074e-09   3.00895e-07 DIIS
   @DF-UKS iter  10:  -407.35774807059101   -6.44832e-10   1.14898e-07 DIIS
   @DF-UKS iter  11:  -407.35774807066480   -7.37828e-11   6.23038e-08 DIIS
   @DF-UKS iter  12:  -407.35774807069197   -2.71712e-11   1.27524e-08 DIIS
   @DF-UKS iter  13:  -407.35774807069288   -9.09495e-13   3.53456e-09 DIIS
  Energy and wave function converged.


  ==> Post-Iterations <==

   Electrons on quadrature grid:
      Nalpha   =   28.9999809040 ; deviation = -1.910e-05
      Nbeta    =   27.9999809186 ; deviation = -1.908e-05
      Ntotal   =   56.9999618226 ; deviation = -3.818e-05 

   @Spin Contamination Metric:   4.411840840E-02
   @S^2 Expected:                7.500000000E-01
   @S^2 Observed:                7.941184084E-01
   @S   Expected:                5.000000000E-01
   @S   Observed:                5.000000000E-01

    Orbital Energies [Eh]
    ---------------------

    Alpha Occupied:                                                       

       1A1    -4.121496     1B1    -4.120994     2A1    -4.108914  
       3A1    -2.312154     2B1    -2.304471     4A1    -2.302118  
       3B1    -2.299231     1B2    -2.297444     1A2    -2.296595  
       5A1    -2.292321     4B1    -2.287518     2B2    -2.280212  
       6A1    -0.383206     7A1    -0.346093     5B1    -0.331126  
       3B2    -0.326656     8A1    -0.310983     4B2    -0.299059  
       2A2    -0.290014     9A1    -0.278079     6B1    -0.267349  
       7B1    -0.264355    10A1    -0.262646     3A2    -0.260427  
      11A1    -0.255689     4A2    -0.254336     5B2    -0.253792  
       8B1    -0.235638    12A1    -0.179508  

    Alpha Virtual:                                                        

       9B1    -0.170403     6B2    -0.062795    13A1    -0.043977  
      10B1    -0.026890    14A1    -0.024111     7B2     0.026066  
       5A2     0.029002    11B1     0.070038    15A1     0.076168  
      12B1     0.095986    16A1     0.151847    17A1     0.158903  
       8B2     0.159833    18A1     0.178369    13B1     0.180616  
       6A2     0.211388     9B2     0.218424    14B1     0.240160  
      19A1     0.247461    20A1     0.282285    15B1     0.285218  
      21A1     0.302297    10B2     0.306335    16B1     0.308770  
       7A2     0.309128    11B2     0.333551    22A1     0.380620  
      17B1     0.381437     8A2     0.413846    12B2     0.450090  
       9A2     0.450679    23A1     0.457959    18B1     0.462260  
      24A1     0.472967    25A1     0.555981    19B1     0.557714  
      20B1     0.565958    26A1     0.791701    27A1     0.872198  
      21B1     0.900042    28A1     0.901610    13B2     0.902148  
      14B2     0.967034    10A2     0.987340    15B2     1.045164  
      29A1     1.052950    22B1     1.060739    11A2     1.064944  
      16B2     1.065405    17B2     1.069816    30A1     1.091341  
      23B1     1.104220    24B1     1.127443    18B2     1.141987  
      12A2     1.148466    25B1     1.197839    26B1     1.213382  
      31A1     1.218833    13A2     1.306925    32A1     1.314731  
      27B1     1.320165    33A1     1.332933    19B2     1.346643  
      14A2     1.353715    34A1     1.363781    28B1     1.380916  
      20B2     1.422496    29B1     1.426058    35A1     1.428217  
      21B2     1.433819    15A2     1.442949    30B1     1.469948  
      36A1     1.475898    37A1     1.493607    16A2     1.557068  
      38A1     1.557770    31B1     1.584635    22B2     1.611302  
      17A2     1.637135    39A1     1.817933    32B1     1.845739  
      33B1     2.057172    40A1     2.154023    41A1     2.660432  
      34B1     2.683706    42A1     3.435686    23B2     3.464725  
      24B2     3.487536    18A2     3.490026    25B2     3.528662  
      43A1     3.539511    35B1     3.555070    26B2     3.607445  
      19A2     3.614562    36B1     3.625243    44A1     3.633707  
      37B1     3.638054    45A1     3.670240    20A2     3.763794  
      46A1     3.776845    27B2     3.785975    21A2     3.797439  
      38B1     3.800169    39B1     3.890772    47A1     3.903342  
      40B1     3.963264    48A1     4.120205    49A1     4.125927  
      41B1     4.128146    28B2     4.128316    29B2     4.132943  
      22A2     4.133867    50A1     4.136549    30B2     4.141431  
      51A1     4.142904    23A2     4.143011    42B1     4.144024  
      31B2     4.145445    24A2     4.146091    52A1     4.146127  
      43B1     4.146989    32B2     4.148292    44B1     4.155648  
      53A1     4.156119    25A2     4.156358    26A2     4.183753  
      33B2     4.188624    54A1     4.191339    27A2     4.215759  
      45B1     4.223651    55A1     4.325102    46B1     4.359428  
      47B1     4.491125    34B2    27.359795    56A1    27.541105  
      48B1    27.567174    57A1    27.660007    35B2    27.737929  
      28A2    27.775915    49B1    29.250041    58A1    29.783760  
      50B1    30.259765    59A1    44.131893    60A1    44.653320  
      51B1    44.669957    61A1   205.188515    62A1   205.415495  
      52B1   205.418990  

    Beta Occupied:                                                        

       1A1    -4.120715     1B1    -4.120218     2A1    -4.105161  
       3A1    -2.312066     2B1    -2.303420     4A1    -2.300814  
       3B1    -2.299140     1B2    -2.297528     1A2    -2.296688  
       5A1    -2.288203     4B1    -2.285752     2B2    -2.280523  
       6A1    -0.381346     7A1    -0.344021     3B2    -0.325643  
       5B1    -0.324942     8A1    -0.306008     4B2    -0.297468  
       2A2    -0.287520     9A1    -0.274265     6B1    -0.266801  
       7B1    -0.262762     3A2    -0.261052    10A1    -0.256933  
       4A2    -0.250465    11A1    -0.248215     5B2    -0.247657  
       8B1    -0.227605  

    Beta Virtual:                                                         

       9B1    -0.161930    12A1    -0.142502     6B2    -0.054552  
      13A1    -0.028760    14A1    -0.011348    10B1    -0.005636  
       5A2     0.031856     7B2     0.039115    11B1     0.069865  
      15A1     0.075789    12B1     0.100723    16A1     0.154934  
      17A1     0.157157     8B2     0.159427    18A1     0.175674  
      13B1     0.180460     6A2     0.213070     9B2     0.219172  
      14B1     0.237611    19A1     0.243169    20A1     0.286642  
      15B1     0.289308    10B2     0.310111    16B1     0.311271  
      21A1     0.311493     7A2     0.313279    11B2     0.339531  
      17B1     0.386154    22A1     0.388153     8A2     0.418739  
       9A2     0.451975    12B2     0.459782    23A1     0.462432  
      18B1     0.467263    24A1     0.476930    19B1     0.559162  
      25A1     0.559749    20B1     0.566609    26A1     0.796705  
      27A1     0.873721    21B1     0.901577    13B2     0.906160  
      28A1     0.906851    14B2     0.970679    10A2     0.996053  
      15B2     1.048672    29A1     1.057550    22B1     1.062818  
      11A2     1.064298    16B2     1.067147    17B2     1.075112  
      30A1     1.096135    23B1     1.108560    24B1     1.131079  
      12A2     1.150868    18B2     1.151392    25B1     1.202305  
      26B1     1.212319    31A1     1.227122    13A2     1.313810  
      27B1     1.321400    32A1     1.324038    33A1     1.337866  
      14A2     1.353702    19B2     1.355171    34A1     1.370226  
      28B1     1.380738    20B2     1.423021    29B1     1.430023  
      35A1     1.430444    21B2     1.440767    15A2     1.446890  
      36A1     1.473473    30B1     1.481968    37A1     1.500424  
      16A2     1.557164    38A1     1.562387    31B1     1.587872  
      22B2     1.620655    17A2     1.636516    39A1     1.820979  
      32B1     1.848570    33B1     2.061308    40A1     2.154989  
      41A1     2.668871    34B1     2.682234    42A1     3.442391  
      23B2     3.470497    24B2     3.487928    18A2     3.498906  
      25B2     3.532146    43A1     3.540673    35B1     3.560190  
      26B2     3.614051    19A2     3.615582    36B1     3.631333  
      44A1     3.642659    37B1     3.645073    45A1     3.670348  
      20A2     3.772975    46A1     3.790436    27B2     3.797837  
      21A2     3.798003    38B1     3.802922    39B1     3.893952  
      47A1     3.913526    40B1     3.973787    48A1     4.123096  
      28B2     4.129969    49A1     4.130800    29B2     4.135911  
      41B1     4.136413    22A2     4.141035    50A1     4.143449  
      23A2     4.146870    30B2     4.147498    42B1     4.149091  
      51A1     4.149892    24A2     4.150947    43B1     4.152203  
      31B2     4.153072    52A1     4.154307    32B2     4.162927  
      44B1     4.167538    53A1     4.168366    25A2     4.168463  
      26A2     4.196194    33B2     4.200256    54A1     4.203188  
      27A2     4.216183    45B1     4.228650    55A1     4.334805  
      46B1     4.368027    47B1     4.494593    34B2    27.354775  
      56A1    27.537022    48B1    27.561500    57A1    27.661024  
      35B2    27.729454    28A2    27.772999    49B1    29.248021  
      58A1    29.791595    50B1    30.254924    59A1    44.127417  
      60A1    44.645999    51B1    44.668279    61A1   205.188471  
      62A1   205.415348    52B1   205.419010  

    Final Occupation by Irrep:
             A1    A2    B1    B2 
    DOCC [    11,    4,    8,    5 ]
    SOCC [     1,    0,    0,    0 ]

  @DF-UKS Final Energy:  -407.35774807069288

   => Energetics <=

    Nuclear Repulsion Energy =            219.4204190775581083
    One-Electron Energy =               -1153.9662464826956239
    Two-Electron Energy =                 565.8180982391061207
    DFT Exchange-Correlation Energy =     -38.6294039546615906
    Empirical Dispersion Energy =          -0.0006149500000000
    VV10 Nonlocal Energy =                  0.0000000000000000
    Total Energy =                       -407.3577480706929919

  UHF NO Occupations:
  HONO-2 :   11 A1 1.9974576
  HONO-1 :    8 B1 1.9829513
  HONO-0 :   12 A1 1.0000000
  LUNO+0 :    9 B1 0.0170487
  LUNO+1 :   13 A1 0.0025424
  LUNO+2 :   10 B1 0.0008198
  LUNO+3 :   14 A1 0.0004436


Computation Completed


Properties will be evaluated at   0.000000,   0.000000,   0.000000 [a0]

Properties computed using the SCF density matrix

  Nuclear Dipole Moment: [e a0]
     X:    -0.0000      Y:    -0.0000      Z:    -0.0000

  Electronic Dipole Moment: [e a0]
     X:     0.0000      Y:     0.0000      Z:    -0.4304

  Dipole Moment: [e a0]
     X:    -0.0000      Y:    -0.0000      Z:    -0.4304     Total:     0.4304

  Dipole Moment: [D]
     X:    -0.0000      Y:    -0.0000      Z:    -1.0939     Total:     1.0939


*** tstop() called on compute286.bc4.acrc.priv at Fri Nov  5 07:50:59 2021
Module time:
	user time   =     536.96 seconds =       8.95 minutes
	system time =      19.12 seconds =       0.32 minutes
	total time  =         25 seconds =       0.42 minutes
Total time:
	user time   =    2407.03 seconds =      40.12 minutes
	system time =      60.27 seconds =       1.00 minutes
	total time  =        256 seconds =       4.27 minutes

*** tstart() called on compute286.bc4.acrc.priv
*** at Fri Nov  5 07:50:59 2021


         ------------------------------------------------------------
                                   SCF GRAD                          
                          Rob Parrish, Justin Turney,                
                       Andy Simmonett, and Alex Sokolov              
         ------------------------------------------------------------

  ==> Geometry <==

    Molecular point group: c2v
    Full point group: C2v

    Geometry (in Angstrom), charge = 0, multiplicity = 2:

       Center              X                  Y                   Z               Mass       
    ------------   -----------------  -----------------  -----------------  -----------------
         AU           0.000000000000    -0.000000000000     1.541202401672   196.966568790000
         AU           1.277486257438     0.000000000000    -0.770601200836   196.966568790000
         AU          -1.277486257438    -0.000000000000    -0.770601200836   196.966568790000

  Nuclear repulsion =  219.420419077558108

  ==> Basis Set <==

  Basis Set: DEF2-TZVPPD
    Blend: DEF2-TZVPPD
    Number of shells: 51
    Number of basis functions: 177
    Number of Cartesian functions: 222
    Spherical Harmonics?: true
    Max angular momentum: 4

  Core potential: DEF2-TZVPPD
    Number of shells: 12
    Number of ECP primitives: 42
    Number of ECP core electrons: 180
    Max angular momentum: 3

  ==> DFJKGrad: Density-Fitted SCF Gradients <==

    Gradient:                    1
    J tasked:                  Yes
    K tasked:                   No
    wK tasked:                  No
    OpenMP threads:             28
    Integrals threads:          28
    Memory [MiB]:            85830
    Schwarz Cutoff:          1E-12
    Fitting Condition:       1E-10

   => Auxiliary Basis Set <=

  Basis Set: (DEF2-TZVPPD AUX)
    Blend: DEF2-UNIVERSAL-JKFIT
    Number of shells: 153
    Number of basis functions: 741
    Number of Cartesian functions: 1095
    Spherical Harmonics?: true
    Max angular momentum: 6

  ==> DFT Potential <==

   => Composite Functional: SCAN-D3BJ <= 

    SCAN Meta-GGA XC Functional
(10.1103/PhysRevLett.115.036402)
    J. Sun, A. Ruzsinszky, J. P. Perdew  Phys. Rev. Lett. 115, 036402, 2015


    Deriv               =              1
    GGA                 =           TRUE
    Meta                =           TRUE

    Exchange Hybrid     =          FALSE
    MP2 Hybrid          =          FALSE

   => Exchange Functionals <=

    1.0000   XC_MGGA_X_SCAN

   => Correlation Functionals <=

    1.0000   XC_MGGA_C_SCAN

   => LibXC Density Thresholds  <==

    XC_MGGA_C_SCAN:  1.00E-15 
    XC_MGGA_X_SCAN:  1.00E-15 

   => Molecular Quadrature <=

    Radial Scheme          =       TREUTLER
    Pruning Scheme         =           NONE
    Nuclear Scheme         =       TREUTLER

    BS radius alpha        =              1
    Pruning alpha          =              1
    Radial Points          =             75
    Spherical Points       =            302
    Total Points           =          64046
    Total Blocks           =            578
    Max Points             =            256
    Max Functions          =            174
    Weights Tolerance      =       1.00E-15


  -Total Gradient:
     Atom            X                  Y                   Z
    ------   -----------------  -----------------  -----------------
       1        0.000000000000    -0.000000000000    -0.048070527588
       2       -0.066294579506    -0.000000000000     0.024164942566
       3        0.066294579506     0.000000000000     0.024164942566


*** tstop() called on compute286.bc4.acrc.priv at Fri Nov  5 07:51:10 2021
Module time:
	user time   =     103.10 seconds =       1.72 minutes
	system time =       2.94 seconds =       0.05 minutes
	total time  =         11 seconds =       0.18 minutes
Total time:
	user time   =    2512.87 seconds =      41.88 minutes
	system time =      63.36 seconds =       1.06 minutes
	total time  =        267 seconds =       4.45 minutes


  ==> Adding ECP gradient terms (computed numerically) <==

  -ECP Gradient:
     Atom            X                  Y                   Z
    ------   -----------------  -----------------  -----------------
       1        0.000000000000    -0.000000000000     0.043730049744
       2        0.068667304953     0.000000000000    -0.021865044948
       3       -0.068667304953    -0.000000000000    -0.021865044948


  -Total Gradient:
     Atom            X                  Y                   Z
    ------   -----------------  -----------------  -----------------
       1        0.000000000000    -0.000000000000    -0.004340477843
       2        0.002372725447     0.000000000000     0.002299897618
       3       -0.002372725447    -0.000000000000     0.002299897618


			-----------------------------------------
			 OPTKING 2.0: for geometry optimizations 
			  - R.A. King,  Bethel University        
			-----------------------------------------
	At level 1: Red. Int., RFO, no backsteps, dynamic trust

	Previous internal coordinate definitions found.
	---Fragment 1 Geometry and Gradient---
	 AU          0.0000000000       -0.0000000000        2.9124504431
	 AU          2.4140991556        0.0000000000       -1.4562252215
	 AU         -2.4140991556       -0.0000000000       -1.4562252215
	             0.0000000000       -0.0000000000       -0.0043404778
	             0.0023727254        0.0000000000        0.0022998976
	            -0.0023727254       -0.0000000000        0.0022998976

	---Fragment 1 Intrafragment Coordinates---
	 - Coordinate -           - BOHR/RAD -       - ANG/DEG -
	 R(1,2)           =         4.991313	       2.641289
	 R(1,3)           =         4.991313	       2.641289
	 R(2,3)           =         4.828198	       2.554973
	 B(1,2,3)         =         1.065965	      61.075272
	 B(1,3,2)         =         1.065965	      61.075272
	 B(2,1,3)         =         1.009663	      57.849456

	Current energy   :      -407.3577480707

	Energy change for the previous step:
		Projected    :        -0.0035856842
		Actual       :        -0.0010507432

	Performing BFGS update.
	Previous computed or guess Hessian on step 1.
	Steps to be used in Hessian update: 1
	Taking RFO optimization step.
	Going to follow RFO solution 1.
	Using RFO vector 1.
	Norm of target step-size    0.08374
	Projected energy change by RFO approximation:         0.0000625659

	Back-transformation to cartesian coordinates...
	Successfully converged to displaced geometry.

	--- Internal Coordinate Step in ANG or DEG, aJ/ANG or AJ/DEG ---
	 ---------------------------------------------------------------------------
	   Coordinate                Previous        Force       Change         New 
	   ----------                --------       ------       ------       ------
	    1 R(1,2)          =      2.641289     0.019139     0.021706     2.662995
	    2 R(1,3)          =      2.641289     0.019139     0.021706     2.662995
	    3 R(2,3)          =      2.554973    -0.026118    -0.028818     2.526154
	    4 B(1,2,3)        =     61.075272     0.000047     0.610493    61.685765
	    5 B(1,3,2)        =     61.075272     0.000047     0.610493    61.685765
	    6 B(2,1,3)        =     57.849456    -0.000094    -1.220986    56.628471
	 ---------------------------------------------------------------------------
	Successfully symmetrized geometry.

  ==> Convergence Check <==

  Measures of convergence in internal coordinates in au.
  Criteria marked as inactive (o), active & met (*), and active & unmet ( ).
  ---------------------------------------------------------------------------------------------
   Step     Total Energy     Delta E     MAX Force     RMS Force      MAX Disp      RMS Disp   
  ---------------------------------------------------------------------------------------------
    Convergence Criteria    1.00e-06 *    3.00e-04 *             o    1.20e-03 *             o
  ---------------------------------------------------------------------------------------------
      2    -407.35774807   -1.05e-03      3.17e-03      1.96e-03 o    5.45e-02      3.42e-02 o  ~
  ---------------------------------------------------------------------------------------------

	Writing optimization data to binary file.
	Structure for next step:
	Cartesian Geometry (in Angstrom)
	   AU     0.0000000000   0.0000000000   1.5629288724
	   AU     1.2630771835   0.0000000000  -0.7814644362
	   AU    -1.2630771835  -0.0000000000  -0.7814644362
			--------------------------
			 OPTKING Finished Execution 
			--------------------------

    Structure for next step:
    Molecular point group: c2v
    Full point group: C2v

    Geometry (in Angstrom), charge = 0, multiplicity = 2:

    AU           0.000000000000     0.000000000000     1.562928878508
    AU           1.263077188504     0.000000000000    -0.781464439254
    AU          -1.263077188504    -0.000000000000    -0.781464439254


Scratch directory: /tmp/
gradient() will perform analytic gradient computation.

*** tstart() called on compute286.bc4.acrc.priv
*** at Fri Nov  5 07:54:16 2021

   => Loading Basis Set <=

    Name: DEF2-TZVPPD
    Role: ORBITAL
    Keyword: BASIS
    atoms 1-3 entry AU         line  2995 (ECP: line  4084) file /mnt/storage/home/zw18965/.conda/envs/p4env/share/psi4/basis/def2-tzvppd.gbs 

    !!!  WARNING: ECP capability is in beta. Please check occupations closely.  !!!

   => SCAN-D3(BJ): Empirical Dispersion <=

    Grimme's -D3 (BJ-damping) Dispersion Correction
    Grimme S.; Ehrlich S.; Goerigk L. (2011), J. Comput. Chem., 32: 1456
    Parametrisation from:    J.G. Brandenburg, J. E. Bates, J. Sun, J.P. Perdew, Phys. Rev. B 94, 115144, 2016

        s6 =       1.000000
        s8 =       0.000000
        a1 =       0.538000
        a2 =       5.420000


         ---------------------------------------------------------
                                   SCF
               by Justin Turney, Rob Parrish, Andy Simmonett
                          and Daniel G. A. Smith
                              UKS Reference
                       28 Threads, 114440 MiB Core
         ---------------------------------------------------------

  ==> Geometry <==

    Molecular point group: c2v
    Full point group: C2v

    Geometry (in Angstrom), charge = 0, multiplicity = 2:

       Center              X                  Y                   Z               Mass       
    ------------   -----------------  -----------------  -----------------  -----------------
         AU           0.000000000000     0.000000000000     1.562928878508   196.966568790000
         AU           1.263077188504     0.000000000000    -0.781464439254   196.966568790000
         AU          -1.263077188504    -0.000000000000    -0.781464439254   196.966568790000

  Running in c2v symmetry.

  Rotational constants: A =      0.02682  B =      0.02336  C =      0.01249 [cm^-1]
  Rotational constants: A =    804.14599  B =    700.25302  C =    374.30605 [MHz]
  Nuclear repulsion =  219.094306736875183

  Charge       = 0
  Multiplicity = 2
  Electrons    = 57
  Nalpha       = 29
  Nbeta        = 28

  ==> Algorithm <==

  SCF Algorithm Type is DF.
  DIIS enabled.
  MOM disabled.
  Fractional occupation disabled.
  Guess Type is READ.
  Energy threshold   = 1.00e-08
  Density threshold  = 1.00e-08
  Integral threshold = 1.00e-12

  ==> Primary Basis <==

  Basis Set: DEF2-TZVPPD
    Blend: DEF2-TZVPPD
    Number of shells: 51
    Number of basis functions: 177
    Number of Cartesian functions: 222
    Spherical Harmonics?: true
    Max angular momentum: 4

  Core potential: DEF2-TZVPPD
    Number of shells: 12
    Number of ECP primitives: 42
    Number of ECP core electrons: 180
    Max angular momentum: 3

  ==> DFT Potential <==

   => Composite Functional: SCAN-D3BJ <= 

    SCAN Meta-GGA XC Functional
(10.1103/PhysRevLett.115.036402)
    J. Sun, A. Ruzsinszky, J. P. Perdew  Phys. Rev. Lett. 115, 036402, 2015


    Deriv               =              1
    GGA                 =           TRUE
    Meta                =           TRUE

    Exchange Hybrid     =          FALSE
    MP2 Hybrid          =          FALSE

   => Exchange Functionals <=

    1.0000   XC_MGGA_X_SCAN

   => Correlation Functionals <=

    1.0000   XC_MGGA_C_SCAN

   => LibXC Density Thresholds  <==

    XC_MGGA_C_SCAN:  1.00E-15 
    XC_MGGA_X_SCAN:  1.00E-15 

   => Molecular Quadrature <=

    Radial Scheme          =       TREUTLER
    Pruning Scheme         =           NONE
    Nuclear Scheme         =       TREUTLER

    BS radius alpha        =              1
    Pruning alpha          =              1
    Radial Points          =             75
    Spherical Points       =            302
    Total Points           =          64064
    Total Blocks           =            582
    Max Points             =            256
    Max Functions          =            174
    Weights Tolerance      =       1.00E-15

   => Loading Basis Set <=

    Name: (DEF2-TZVPPD AUX)
    Role: JKFIT
    Keyword: DF_BASIS_SCF
    atoms 1-3 entry AU         line  8426 file /mnt/storage/home/zw18965/.conda/envs/p4env/share/psi4/basis/def2-universal-jkfit.gbs 

   => Loading Basis Set <=

    Name: DEF2-TZVPPD
    Role: ORBITAL
    Keyword: BASIS
    atoms 1-3 entry AU         line  2995 (ECP: line  4084) file /mnt/storage/home/zw18965/.conda/envs/p4env/share/psi4/basis/def2-tzvppd.gbs 

    !!!  WARNING: ECP capability is in beta. Please check occupations closely.  !!!

  Reading orbitals from file /tmp/Au03N0_D3H.default.21336.180.npy, no projection.

  ==> Integral Setup <==

  DFHelper Memory: AOs need 0.192 GiB; user supplied 83.188 GiB. Using in-core AOs.

  ==> MemDFJK: Density-Fitted J/K Matrices <==

    J tasked:                   Yes
    K tasked:                    No
    wK tasked:                   No
    OpenMP threads:              28
    Memory [MiB]:             85184
    Algorithm:                 Core
    Schwarz Cutoff:           1E-12
    Mask sparsity (%):       0.4596
    Fitting Condition:        1E-10

   => Auxiliary Basis Set <=

  Basis Set: (DEF2-TZVPPD AUX)
    Blend: DEF2-UNIVERSAL-JKFIT
    Number of shells: 153
    Number of basis functions: 741
    Number of Cartesian functions: 1095
    Spherical Harmonics?: true
    Max angular momentum: 6

  Cached 100.0% of DFT collocation blocks in 0.631 [GiB].

  Minimum eigenvalue in the overlap matrix is 1.5500535457E-03.
  Reciprocal condition number of the overlap matrix is 3.0073864081E-04.
    Using symmetric orthogonalization.

  ==> Pre-Iterations <==

  SCF Guess: Orbitals guess was supplied from a previous computation.

   -------------------------------------------------------
    Irrep   Nso     Nmo     Nalpha   Nbeta   Ndocc  Nsocc
   -------------------------------------------------------
     A1        62      62      12      11      11       1
     A2        28      28       4       4       4       0
     B1        52      52       8       8       8       0
     B2        35      35       5       5       5       0
   -------------------------------------------------------
    Total     177     177      29      28      28       1
   -------------------------------------------------------

  ==> Iterations <==

                           Total Energy        Delta E     RMS |[F,P]|

   @DF-UKS iter   0:  -407.35875609810967   -4.07359e+02   1.57231e-03 
   @DF-UKS iter   1:  -407.35775291351058    1.00318e-03   1.88387e-04 DIIS
   @DF-UKS iter   2:  -407.35622889218610    1.52402e-03   6.12355e-04 DIIS
   @DF-UKS iter   3:  -407.35790309215088   -1.67420e-03   5.62853e-05 DIIS
   @DF-UKS iter   4:  -407.35791161860402   -8.52645e-06   1.56693e-05 DIIS
   @DF-UKS iter   5:  -407.35791253276363   -9.14160e-07   3.80023e-06 DIIS
   @DF-UKS iter   6:  -407.35791260276790   -7.00043e-08   2.16414e-06 DIIS
   @DF-UKS iter   7:  -407.35791264307920   -4.03113e-08   5.15258e-07 DIIS
   @DF-UKS iter   8:  -407.35791264707598   -3.99677e-09   4.76263e-07 DIIS
   @DF-UKS iter   9:  -407.35791264814486   -1.06888e-09   1.45310e-07 DIIS
   @DF-UKS iter  10:  -407.35791264830311   -1.58252e-10   8.16106e-08 DIIS
   @DF-UKS iter  11:  -407.35791264832608   -2.29647e-11   3.39897e-08 DIIS
   @DF-UKS iter  12:  -407.35791264833313   -7.04858e-12   7.24032e-09 DIIS
  Energy and wave function converged.


  ==> Post-Iterations <==

   Electrons on quadrature grid:
      Nalpha   =   28.9999766258 ; deviation = -2.337e-05
      Nbeta    =   27.9999769024 ; deviation = -2.310e-05
      Ntotal   =   56.9999535282 ; deviation = -4.647e-05 

   @Spin Contamination Metric:   4.013847898E-02
   @S^2 Expected:                7.500000000E-01
   @S^2 Observed:                7.901384790E-01
   @S   Expected:                5.000000000E-01
   @S   Observed:                5.000000000E-01

    Orbital Energies [Eh]
    ---------------------

    Alpha Occupied:                                                       

       1A1    -4.121944     1B1    -4.121357     2A1    -4.106775  
       3A1    -2.313177     2B1    -2.304385     4A1    -2.302295  
       3B1    -2.299525     1B2    -2.297806     1A2    -2.296843  
       5A1    -2.290395     4B1    -2.285298     2B2    -2.278447  
       6A1    -0.383004     7A1    -0.348590     5B1    -0.327369  
       3B2    -0.327315     8A1    -0.310872     4B2    -0.299637  
       2A2    -0.288169     9A1    -0.278431     6B1    -0.266379  
       7B1    -0.263804    10A1    -0.262428     3A2    -0.259601  
      11A1    -0.254908     4A2    -0.253936     5B2    -0.253666  
       8B1    -0.235311    12A1    -0.180419  

    Alpha Virtual:                                                        

       9B1    -0.169206     6B2    -0.062674    13A1    -0.044221  
      10B1    -0.026043    14A1    -0.024232     7B2     0.025112  
       5A2     0.029900    11B1     0.070499    15A1     0.075938  
      12B1     0.095670    16A1     0.152226    17A1     0.159064  
       8B2     0.159891    18A1     0.178033    13B1     0.181270  
       6A2     0.212185     9B2     0.217869    14B1     0.240212  
      19A1     0.247402    20A1     0.282422    15B1     0.283994  
      21A1     0.299178    10B2     0.306298     7A2     0.308846  
      16B1     0.312038    11B2     0.333783    22A1     0.380364  
      17B1     0.381751     8A2     0.413882    12B2     0.449622  
       9A2     0.451142    23A1     0.457554    18B1     0.462886  
      24A1     0.473123    25A1     0.554184    19B1     0.556088  
      20B1     0.569467    26A1     0.794249    27A1     0.865918  
      13B2     0.903173    21B1     0.904854    28A1     0.908913  
      14B2     0.962546    10A2     0.993747    15B2     1.046182  
      29A1     1.050334    22B1     1.062295    16B2     1.066052  
      11A2     1.066257    17B2     1.068937    30A1     1.088306  
      23B1     1.107719    24B1     1.127065    18B2     1.138993  
      12A2     1.152474    25B1     1.195063    26B1     1.211437  
      31A1     1.219188    13A2     1.303326    32A1     1.310949  
      27B1     1.321919    33A1     1.334842    19B2     1.342549  
      14A2     1.357491    34A1     1.358275    28B1     1.384598  
      20B2     1.422536    29B1     1.426719    35A1     1.428671  
      21B2     1.433966    15A2     1.445255    30B1     1.470895  
      36A1     1.477326    37A1     1.494549    38A1     1.550930  
      16A2     1.555538    31B1     1.593496    22B2     1.603575  
      17A2     1.646553    39A1     1.804879    32B1     1.847817  
      33B1     2.061911    40A1     2.153513    41A1     2.650445  
      34B1     2.688776    42A1     3.438253    23B2     3.464122  
      24B2     3.489774    18A2     3.492220    25B2     3.528787  
      43A1     3.536443    35B1     3.558090    26B2     3.604961  
      19A2     3.617953    36B1     3.619448    44A1     3.626387  
      37B1     3.636740    45A1     3.684161    20A2     3.760018  
      46A1     3.769900    27B2     3.781237    21A2     3.799908  
      38B1     3.803779    39B1     3.885594    47A1     3.906451  
      40B1     3.964014    48A1     4.115913    49A1     4.123577  
      28B2     4.125875    41B1     4.130669    29B2     4.131366  
      22A2     4.135174    50A1     4.135854    30B2     4.141884  
      23A2     4.143919    51A1     4.144343    42B1     4.145224  
      31B2     4.145670    52A1     4.145790    24A2     4.146076  
      43B1     4.147090    32B2     4.149583    44B1     4.156500  
      53A1     4.157652    25A2     4.157905    26A2     4.179119  
      33B2     4.183401    54A1     4.183926    27A2     4.230748  
      45B1     4.236936    55A1     4.307948    46B1     4.347814  
      47B1     4.514557    34B2    27.361569    56A1    27.543687  
      48B1    27.577188    57A1    27.683549    35B2    27.723851  
      28A2    27.791689    49B1    29.185365    58A1    29.644559  
      50B1    30.439820    59A1    44.131582    60A1    44.641105  
      51B1    44.675299    61A1   205.188670    62A1   205.411014  
      52B1   205.420829  

    Beta Occupied:                                                        

       1A1    -4.121171     1B1    -4.120590     2A1    -4.103177  
       3A1    -2.313252     2B1    -2.303501     4A1    -2.300907  
       3B1    -2.299290     1B2    -2.297901     1A2    -2.296949  
       5A1    -2.286473     4B1    -2.283840     2B2    -2.278869  
       6A1    -0.381336     7A1    -0.346313     3B2    -0.326356  
       5B1    -0.321343     8A1    -0.305761     4B2    -0.297900  
       2A2    -0.285755     9A1    -0.274635     6B1    -0.265943  
       7B1    -0.261939     3A2    -0.260104    10A1    -0.256638  
       4A2    -0.250179     5B2    -0.247557    11A1    -0.247382  
       8B1    -0.227417  

    Beta Virtual:                                                         

       9B1    -0.161108    12A1    -0.143734     6B2    -0.054432  
      13A1    -0.028098    14A1    -0.012408    10B1    -0.005090  
       5A2     0.032716     7B2     0.038365    11B1     0.070076  
      15A1     0.075396    12B1     0.100531    16A1     0.155049  
      17A1     0.157284     8B2     0.159507    18A1     0.175135  
      13B1     0.181024     6A2     0.213919     9B2     0.218699  
      14B1     0.237559    19A1     0.242986    20A1     0.286844  
      15B1     0.288637    21A1     0.308303    10B2     0.310452  
       7A2     0.312845    16B1     0.313954    11B2     0.339028  
      17B1     0.386472    22A1     0.387642     8A2     0.418676  
       9A2     0.452178    12B2     0.459180    23A1     0.461743  
      18B1     0.467614    24A1     0.476802    25A1     0.558081  
      19B1     0.558325    20B1     0.569109    26A1     0.799355  
      27A1     0.867132    21B1     0.906656    13B2     0.906663  
      28A1     0.914228    14B2     0.966946    10A2     1.002718  
      15B2     1.049766    29A1     1.054822    22B1     1.064083  
      11A2     1.065479    16B2     1.067777    17B2     1.073753  
      30A1     1.093331    23B1     1.112063    24B1     1.131204  
      18B2     1.148619    12A2     1.155035    25B1     1.199038  
      26B1     1.210584    31A1     1.227734    13A2     1.310955  
      32A1     1.319635    27B1     1.322462    33A1     1.339663  
      19B2     1.350813    14A2     1.356562    34A1     1.363844  
      28B1     1.384431    20B2     1.422080    29B1     1.430201  
      35A1     1.430577    21B2     1.441485    15A2     1.448841  
      36A1     1.475456    30B1     1.482848    37A1     1.500804  
      38A1     1.555223    16A2     1.555672    31B1     1.596716  
      22B2     1.613105    17A2     1.645833    39A1     1.808286  
      32B1     1.851433    33B1     2.065617    40A1     2.154429  
      41A1     2.658708    34B1     2.687304    42A1     3.444951  
      23B2     3.470421    24B2     3.489715    18A2     3.500984  
      25B2     3.532278    43A1     3.537519    35B1     3.563396  
      26B2     3.611712    19A2     3.619167    36B1     3.627584  
      44A1     3.635440    37B1     3.641636    45A1     3.684518  
      20A2     3.769969    46A1     3.783023    27B2     3.793103  
      21A2     3.799691    38B1     3.806550    39B1     3.888148  
      47A1     3.916474    40B1     3.974979    48A1     4.118231  
      28B2     4.127386    49A1     4.128291    29B2     4.134274  
      41B1     4.138725    22A2     4.142176    50A1     4.142475  
      30B2     4.147105    23A2     4.147247    42B1     4.149022  
      51A1     4.150009    24A2     4.151397    43B1     4.153380  
      31B2     4.153906    52A1     4.155854    32B2     4.164459  
      44B1     4.169233    53A1     4.170076    25A2     4.170204  
      26A2     4.192015    33B2     4.195423    54A1     4.196373  
      27A2     4.231005    45B1     4.241256    55A1     4.317674  
      46B1     4.358153    47B1     4.516372    34B2    27.356694  
      56A1    27.540176    48B1    27.571131    57A1    27.684257  
      35B2    27.715063    28A2    27.788841    49B1    29.184061  
      58A1    29.652105    50B1    30.434489    59A1    44.126725  
      60A1    44.633435    51B1    44.673480    61A1   205.188610  
      62A1   205.410839    52B1   205.420849  

    Final Occupation by Irrep:
             A1    A2    B1    B2 
    DOCC [    11,    4,    8,    5 ]
    SOCC [     1,    0,    0,    0 ]

  @DF-UKS Final Energy:  -407.35791264833313

   => Energetics <=

    Nuclear Repulsion Energy =            219.0943067368751827
    One-Electron Energy =               -1153.3345620234692888
    Two-Electron Energy =                 565.5131939717234673
    DFT Exchange-Correlation Energy =     -38.6302364834626246
    Empirical Dispersion Energy =          -0.0006148500000000
    VV10 Nonlocal Energy =                  0.0000000000000000
    Total Energy =                       -407.3579126483332402

  UHF NO Occupations:
  HONO-2 :   11 A1 1.9975034
  HONO-1 :    8 B1 1.9848427
  HONO-0 :   12 A1 1.0000000
  LUNO+0 :    9 B1 0.0151573
  LUNO+1 :   13 A1 0.0024966
  LUNO+2 :   10 B1 0.0007856
  LUNO+3 :   14 A1 0.0004093


Computation Completed


Properties will be evaluated at   0.000000,   0.000000,   0.000000 [a0]

Properties computed using the SCF density matrix

  Nuclear Dipole Moment: [e a0]
     X:     0.0000      Y:     0.0000      Z:     0.0000

  Electronic Dipole Moment: [e a0]
     X:     0.0000      Y:     0.0000      Z:    -0.4426

  Dipole Moment: [e a0]
     X:     0.0000      Y:     0.0000      Z:    -0.4426     Total:     0.4426

  Dipole Moment: [D]
     X:     0.0000      Y:     0.0000      Z:    -1.1251     Total:     1.1251


*** tstop() called on compute286.bc4.acrc.priv at Fri Nov  5 07:54:38 2021
Module time:
	user time   =     485.97 seconds =       8.10 minutes
	system time =      12.06 seconds =       0.20 minutes
	total time  =         22 seconds =       0.37 minutes
Total time:
	user time   =    4117.36 seconds =      68.62 minutes
	system time =      84.48 seconds =       1.41 minutes
	total time  =        475 seconds =       7.92 minutes

*** tstart() called on compute286.bc4.acrc.priv
*** at Fri Nov  5 07:54:38 2021


         ------------------------------------------------------------
                                   SCF GRAD                          
                          Rob Parrish, Justin Turney,                
                       Andy Simmonett, and Alex Sokolov              
         ------------------------------------------------------------

  ==> Geometry <==

    Molecular point group: c2v
    Full point group: C2v

    Geometry (in Angstrom), charge = 0, multiplicity = 2:

       Center              X                  Y                   Z               Mass       
    ------------   -----------------  -----------------  -----------------  -----------------
         AU           0.000000000000     0.000000000000     1.562928878508   196.966568790000
         AU           1.263077188504     0.000000000000    -0.781464439254   196.966568790000
         AU          -1.263077188504    -0.000000000000    -0.781464439254   196.966568790000

  Nuclear repulsion =  219.094306736875183

  ==> Basis Set <==

  Basis Set: DEF2-TZVPPD
    Blend: DEF2-TZVPPD
    Number of shells: 51
    Number of basis functions: 177
    Number of Cartesian functions: 222
    Spherical Harmonics?: true
    Max angular momentum: 4

  Core potential: DEF2-TZVPPD
    Number of shells: 12
    Number of ECP primitives: 42
    Number of ECP core electrons: 180
    Max angular momentum: 3

  ==> DFJKGrad: Density-Fitted SCF Gradients <==

    Gradient:                    1
    J tasked:                  Yes
    K tasked:                   No
    wK tasked:                  No
    OpenMP threads:             28
    Integrals threads:          28
    Memory [MiB]:            85830
    Schwarz Cutoff:          1E-12
    Fitting Condition:       1E-10

   => Auxiliary Basis Set <=

  Basis Set: (DEF2-TZVPPD AUX)
    Blend: DEF2-UNIVERSAL-JKFIT
    Number of shells: 153
    Number of basis functions: 741
    Number of Cartesian functions: 1095
    Spherical Harmonics?: true
    Max angular momentum: 6

  ==> DFT Potential <==

   => Composite Functional: SCAN-D3BJ <= 

    SCAN Meta-GGA XC Functional
(10.1103/PhysRevLett.115.036402)
    J. Sun, A. Ruzsinszky, J. P. Perdew  Phys. Rev. Lett. 115, 036402, 2015


    Deriv               =              1
    GGA                 =           TRUE
    Meta                =           TRUE

    Exchange Hybrid     =          FALSE
    MP2 Hybrid          =          FALSE

   => Exchange Functionals <=

    1.0000   XC_MGGA_X_SCAN

   => Correlation Functionals <=

    1.0000   XC_MGGA_C_SCAN

   => LibXC Density Thresholds  <==

    XC_MGGA_C_SCAN:  1.00E-15 
    XC_MGGA_X_SCAN:  1.00E-15 

   => Molecular Quadrature <=

    Radial Scheme          =       TREUTLER
    Pruning Scheme         =           NONE
    Nuclear Scheme         =       TREUTLER

    BS radius alpha        =              1
    Pruning alpha          =              1
    Radial Points          =             75
    Spherical Points       =            302
    Total Points           =          64064
    Total Blocks           =            582
    Max Points             =            256
    Max Functions          =            174
    Weights Tolerance      =       1.00E-15


  -Total Gradient:
     Atom            X                  Y                   Z
    ------   -----------------  -----------------  -----------------
       1        0.000000000000    -0.000000000000    -0.042300171760
       2       -0.073289310881    -0.000000000000     0.021315180231
       3        0.073289310881     0.000000000000     0.021315180231


*** tstop() called on compute286.bc4.acrc.priv at Fri Nov  5 07:54:49 2021
Module time:
	user time   =     106.06 seconds =       1.77 minutes
	system time =       3.07 seconds =       0.05 minutes
	total time  =         11 seconds =       0.18 minutes
Total time:
	user time   =    4226.20 seconds =      70.44 minutes
	system time =      87.69 seconds =       1.46 minutes
	total time  =        486 seconds =       8.10 minutes


  ==> Adding ECP gradient terms (computed numerically) <==

  -ECP Gradient:
     Atom            X                  Y                   Z
    ------   -----------------  -----------------  -----------------
       1        0.000000000000     0.000000000000     0.041844765229
       2        0.071918574737     0.000000000000    -0.020922381176
       3       -0.071918574737    -0.000000000000    -0.020922381176


  -Total Gradient:
     Atom            X                  Y                   Z
    ------   -----------------  -----------------  -----------------
       1        0.000000000000    -0.000000000000    -0.000455406531
       2       -0.001370736144    -0.000000000000     0.000392799055
       3        0.001370736144     0.000000000000     0.000392799055


			-----------------------------------------
			 OPTKING 2.0: for geometry optimizations 
			  - R.A. King,  Bethel University        
			-----------------------------------------
	At level 1: Red. Int., RFO, no backsteps, dynamic trust

	Previous internal coordinate definitions found.
	---Fragment 1 Geometry and Gradient---
	 AU          0.0000000000        0.0000000000        2.9535075339
	 AU          2.3868699616        0.0000000000       -1.4767537670
	 AU         -2.3868699616       -0.0000000000       -1.4767537670
	             0.0000000000       -0.0000000000       -0.0004554065
	            -0.0013707361       -0.0000000000        0.0003927991
	             0.0013707361        0.0000000000        0.0003927991

[...]
      41App    3.489286    42App    3.492233    43App    3.529085  
      77Ap     3.536886    78Ap     3.557979    44App    3.604892  
      45App    3.617250    79Ap     3.618935    80Ap     3.625689  
      81Ap     3.635744    82Ap     3.680795    46App    3.759411  
      83Ap     3.769633    47App    3.780725    48App    3.799352  
      84Ap     3.803286    85Ap     3.886878    86Ap     3.906458  
      87Ap     3.964638    88Ap     4.117141    89Ap     4.124287  
      49App    4.126597    90Ap     4.130896    50App    4.131798  
      51App    4.135313    91Ap     4.136182    52App    4.142052  
      53App    4.143807    92Ap     4.144487    93Ap     4.145253  
      54App    4.145790    94Ap     4.145933    55App    4.146123  
      95Ap     4.147051    56App    4.149543    96Ap     4.156310  
      97Ap     4.157617    57App    4.157872    58App    4.178534  
      59App    4.182825    98Ap     4.183280    60App    4.227118  
      99Ap     4.233207   100Ap     4.306210   101Ap     4.345130  
     102Ap     4.506495    61App   27.363290   103Ap    27.542562  
     104Ap    27.576809   105Ap    27.683089    62App   27.723247  
      63App   27.787726   106Ap    29.172891   107Ap    29.627780  
     108Ap    30.388586   109Ap    44.130201   110Ap    44.638710  
     111Ap    44.671512   112Ap   205.188126   113Ap   205.410016  
     114Ap   205.419378  

    Beta Occupied:                                                        

       1Ap    -4.120982     2Ap    -4.120422     3Ap    -4.103182  
       4Ap    -2.312868     5Ap    -2.303376     6Ap    -2.300731  
       7Ap    -2.299154     1App   -2.297746     2App   -2.296821  
       8Ap    -2.286461     9Ap    -2.283859     3App   -2.278869  
      10Ap    -0.380551    11Ap    -0.345527     4App   -0.325762  
      12Ap    -0.321144    13Ap    -0.305412     5App   -0.297575  
       6App   -0.285679    14Ap    -0.274407    15Ap    -0.266042  
      16Ap    -0.262057     7App   -0.260276    17Ap    -0.256610  
       8App   -0.250224     9App   -0.247589    18Ap    -0.247403  
      19Ap    -0.227656  

    Beta Virtual:                                                         

      20Ap    -0.161333    21Ap    -0.143784    10App   -0.054351  
      22Ap    -0.028236    23Ap    -0.012425    24Ap    -0.005239  
      11App    0.032502    12App    0.038328    25Ap     0.069986  
      26Ap     0.075352    27Ap     0.100366    28Ap     0.154972  
      29Ap     0.157269    13App    0.159571    30Ap     0.175160  
      31Ap     0.180958    14App    0.213763    15App    0.218705  
      32Ap     0.237595    33Ap     0.243035    34Ap     0.286665  
      35Ap     0.288301    36Ap     0.308010    16App    0.310260  
      17App    0.312726    37Ap     0.313128    18App    0.338796  
      38Ap     0.386296    39Ap     0.387547    19App    0.418520  
      20App    0.452068    21App    0.459138    40Ap     0.461763  
      41Ap     0.467510    42Ap     0.476774    43Ap     0.557777  
      44Ap     0.558046    45Ap     0.568424    46Ap     0.800613  
      47Ap     0.867933    48Ap     0.906727    22App    0.908334  
      49Ap     0.914367    23App    0.968135    24App    1.002933  
      25App    1.050346    50Ap     1.054777    51Ap     1.063519  
      26App    1.065173    27App    1.067287    28App    1.073629  
      52Ap     1.093988    53Ap     1.112132    54Ap     1.130802  
      29App    1.148577    30App    1.154164    55Ap     1.198529  
      56Ap     1.209696    57Ap     1.226715    31App    1.310021  
      58Ap     1.319490    59Ap     1.321861    60Ap     1.339182  
      32App    1.350301    33App    1.355640    61Ap     1.363502  
      62Ap     1.383296    34App    1.422360    63Ap     1.430203  
      64Ap     1.430882    35App    1.441748    36App    1.448916  
      65Ap     1.475113    66Ap     1.482870    67Ap     1.500928  
      68Ap     1.554773    37App    1.555036    69Ap     1.594265  
      38App    1.612434    39App    1.643188    70Ap     1.806659  
      71Ap     1.848288    72Ap     2.060494    73Ap     2.152749  
      74Ap     2.656857    75Ap     2.684302    76Ap     3.444436  
      40App    3.470817    41App    3.489269    42App    3.501008  
      43App    3.532568    77Ap     3.537983    78Ap     3.563285  
      44App    3.611649    45App    3.618443    79Ap     3.627205  
      80Ap     3.634763    81Ap     3.640507    82Ap     3.681090  
      46App    3.769353    83Ap     3.782803    47App    3.792583  
      48App    3.799133    84Ap     3.806039    85Ap     3.889524  
      86Ap     3.916491    87Ap     3.975508    88Ap     4.119507  
      49App    4.128125    89Ap     4.128972    50App    4.134688  
      90Ap     4.138873    51App    4.142231    91Ap     4.142792  
      52App    4.147146    53App    4.147252    92Ap     4.149053  
      93Ap     4.150122    54App    4.151476    94Ap     4.153340  
      55App    4.153996    95Ap     4.155996    56App    4.164441  
      96Ap     4.169059    97Ap     4.170060    57App    4.170184  
      58App    4.191447    59App    4.194870    98Ap     4.195719  
      60App    4.227407    99Ap     4.237592   100Ap     4.315930  
     101Ap     4.355401   102Ap     4.508374    61App   27.358407  
     103Ap    27.538836   104Ap    27.570775   105Ap    27.683978  
      62App   27.714468    63App   27.784874   106Ap    29.171527  
     107Ap    29.635316   108Ap    30.383280   109Ap    44.125358  
     110Ap    44.631023   111Ap    44.669706   112Ap   205.188067  
     113Ap   205.409841   114Ap   205.419399  

    Final Occupation by Irrep:
             Ap   App 
    DOCC [    19,    9 ]
    SOCC [     1,    0 ]

  @DF-UKS Final Energy:  -407.35794006657238

   => Energetics <=

    Nuclear Repulsion Energy =            218.7696727439412996
    One-Electron Energy =               -1152.6942548968254414
    Two-Electron Energy =                 565.1960266517037326
    DFT Exchange-Correlation Energy =     -38.6287697653920787
    Empirical Dispersion Energy =          -0.0006148000000000
    VV10 Nonlocal Energy =                  0.0000000000000000
    Total Energy =                       -407.3579400665724393

  UHF NO Occupations:
  HONO-2 :   18 Ap 1.9974973
  HONO-1 :   19 Ap 1.9848555
  HONO-0 :   20 Ap 1.0000000
  LUNO+0 :   21 Ap 0.0151445
  LUNO+1 :   22 Ap 0.0025027
  LUNO+2 :   23 Ap 0.0007889
  LUNO+3 :   24 Ap 0.0004115


Computation Completed


Properties will be evaluated at   0.000000,   0.000000,   0.000000 [a0]

Properties computed using the SCF density matrix

  Nuclear Dipole Moment: [e a0]
     X:    -0.0000      Y:     0.0000      Z:    -0.0000

  Electronic Dipole Moment: [e a0]
     X:    -0.0004      Y:     0.0000      Z:    -0.4428

  Dipole Moment: [e a0]
     X:    -0.0004      Y:     0.0000      Z:    -0.4428     Total:     0.4428

  Dipole Moment: [D]
     X:    -0.0011      Y:     0.0000      Z:    -1.1254     Total:     1.1254


*** tstop() called on compute286.bc4.acrc.priv at Fri Nov  5 08:46:29 2021
Module time:
	user time   =     696.97 seconds =      11.62 minutes
	system time =      20.36 seconds =       0.34 minutes
	total time  =         32 seconds =       0.53 minutes
Total time:
	user time   =   28582.12 seconds =     476.37 minutes
	system time =     479.50 seconds =       7.99 minutes
	total time  =       3586 seconds =      59.77 minutes

*** tstart() called on compute286.bc4.acrc.priv
*** at Fri Nov  5 08:46:29 2021


         ------------------------------------------------------------
                                   SCF GRAD                          
                          Rob Parrish, Justin Turney,                
                       Andy Simmonett, and Alex Sokolov              
         ------------------------------------------------------------

  ==> Geometry <==

    Molecular point group: cs
    Full point group: Cs

    Geometry (in Angstrom), charge = 0, multiplicity = 2:

       Center              X                  Y                   Z               Mass       
    ------------   -----------------  -----------------  -----------------  -----------------
         AU          -0.000105144920     0.000000000000     1.563543258927   196.966568790000
         AU           1.266424922097     0.000000000000    -0.781868993381   196.966568790000
         AU          -1.266319777177     0.000000000000    -0.781674265546   196.966568790000

  Nuclear repulsion =  218.769672743941300

  ==> Basis Set <==

  Basis Set: DEF2-TZVPPD
    Blend: DEF2-TZVPPD
    Number of shells: 51
    Number of basis functions: 177
    Number of Cartesian functions: 222
    Spherical Harmonics?: true
    Max angular momentum: 4

  Core potential: DEF2-TZVPPD
    Number of shells: 12
    Number of ECP primitives: 42
    Number of ECP core electrons: 180
    Max angular momentum: 3

  ==> DFJKGrad: Density-Fitted SCF Gradients <==

    Gradient:                    1
    J tasked:                  Yes
    K tasked:                   No
    wK tasked:                  No
    OpenMP threads:             28
    Integrals threads:          28
    Memory [MiB]:            85830
    Schwarz Cutoff:          1E-12
    Fitting Condition:       1E-10

   => Auxiliary Basis Set <=

  Basis Set: (DEF2-TZVPPD AUX)
    Blend: DEF2-UNIVERSAL-JKFIT
    Number of shells: 153
    Number of basis functions: 741
    Number of Cartesian functions: 1095
    Spherical Harmonics?: true
    Max angular momentum: 6

  ==> DFT Potential <==

   => Composite Functional: SCAN-D3BJ <= 

    SCAN Meta-GGA XC Functional
(10.1103/PhysRevLett.115.036402)
    J. Sun, A. Ruzsinszky, J. P. Perdew  Phys. Rev. Lett. 115, 036402, 2015


    Deriv               =              1
    GGA                 =           TRUE
    Meta                =           TRUE

    Exchange Hybrid     =          FALSE
    MP2 Hybrid          =          FALSE

   => Exchange Functionals <=

    1.0000   XC_MGGA_X_SCAN

   => Correlation Functionals <=

    1.0000   XC_MGGA_C_SCAN

   => LibXC Density Thresholds  <==

    XC_MGGA_C_SCAN:  1.00E-15 
    XC_MGGA_X_SCAN:  1.00E-15 

   => Molecular Quadrature <=

    Radial Scheme          =       TREUTLER
    Pruning Scheme         =           NONE
    Nuclear Scheme         =       TREUTLER

    BS radius alpha        =              1
    Pruning alpha          =              1
    Radial Points          =             75
    Spherical Points       =            302
    Total Points           =          64062
    Total Blocks           =            580
    Max Points             =            255
    Max Functions          =            174
    Weights Tolerance      =       1.00E-15


  -Total Gradient:
     Atom            X                  Y                   Z
    ------   -----------------  -----------------  -----------------
       1       -0.000019474850     0.000000000000    -0.041831514071
       2       -0.071349031561     0.000000000000     0.021055838770
       3        0.071373258105     0.000000000000     0.021093711660


*** tstop() called on compute286.bc4.acrc.priv at Fri Nov  5 08:46:41 2021
Module time:
	user time   =     103.32 seconds =       1.72 minutes
	system time =       3.32 seconds =       0.06 minutes
	total time  =         12 seconds =       0.20 minutes
Total time:
	user time   =   28688.99 seconds =     478.15 minutes
	system time =     482.99 seconds =       8.05 minutes
	total time  =       3598 seconds =      59.97 minutes


  ==> Adding ECP gradient terms (computed numerically) <==

  -ECP Gradient:
     Atom            X                  Y                   Z
    ------   -----------------  -----------------  -----------------
       1        0.000018833954     0.000000000000     0.041900994621
       2        0.071423441253     0.000000000000    -0.020934170871
       3       -0.071439213004     0.000000000000    -0.020964091547


  -Total Gradient:
     Atom            X                  Y                   Z
    ------   -----------------  -----------------  -----------------
       1       -0.000000640896     0.000000000000     0.000069480550
       2        0.000074409692     0.000000000000     0.000121667899
       3       -0.000065954899     0.000000000000     0.000129620113


         ----------------------------------------------------------
                                   FINDIF
                     R. A. King and Jonathon Misiewicz
         ---------------------------------------------------------

  Computing second-derivative from gradients using projected, 
  symmetry-adapted, cartesian coordinates.

  6 gradients passed in, including the reference geometry.
  Generating complete list of displacements from unique ones.

    Operation 2 takes plus displacements of irrep B1 to minus ones.

-------------------------------------------------------------


  ==> Harmonic Vibrational Analysis <==

  non-mass-weighted Hessian:       Symmetric? True   Hermitian? True   Lin Dep Dim?  6 (0)
  projection of translations (True) and rotations (True) removed 6 degrees of freedom (6)
  total projector:                 Symmetric? True   Hermitian? True   Lin Dep Dim?  6 (6)
  mass-weighted Hessian:           Symmetric? True   Hermitian? True   Lin Dep Dim?  6 (0)
  pre-proj  low-frequency mode:    0.0000i [cm^-1]
  pre-proj  low-frequency mode:    0.0000i [cm^-1]
  pre-proj  low-frequency mode:    0.0000i [cm^-1]
  pre-proj  low-frequency mode:    0.0000  [cm^-1]
  pre-proj  low-frequency mode:    0.0000  [cm^-1]
  pre-proj  low-frequency mode:    0.0000  [cm^-1]
  pre-proj  low-frequency mode:   50.6847  [cm^-1]
  pre-proj  all modes:['0.0000i' '0.0000i' '0.0000i' '0.0000' '0.0000' '0.0000' '50.6847'
 '117.9344' '183.6191']
  projected mass-weighted Hessian: Symmetric? True   Hermitian? True   Lin Dep Dim?  6 (6)
  post-proj low-frequency mode:    0.0000i [cm^-1] (TR)
  post-proj low-frequency mode:    0.0000i [cm^-1] (TR)
  post-proj low-frequency mode:    0.0000i [cm^-1] (TR)
  post-proj low-frequency mode:    0.0000  [cm^-1] (TR)
  post-proj low-frequency mode:    0.0000  [cm^-1] (TR)
  post-proj low-frequency mode:    0.0000  [cm^-1] (TR)
  post-proj low-frequency mode:   50.6847  [cm^-1] (V)
  post-proj  all modes:['0.0000i' '0.0000i' '0.0000i' '0.0000' '0.0000' '0.0000' '50.6847'
 '117.9344' '183.6191']

  Vibration                       7                   8                   9           
  Freq [cm^-1]                 50.6847             117.9344            183.6191       
  Irrep                           B1                  A1                  A1          
  Reduced mass [u]             196.9666            196.9666            196.9666       
  Force const [mDyne/A]         0.2981              1.6141              3.9127        
  Turning point v=0 [a0]        0.1098              0.0720              0.0577        
  RMS dev v=0 [a0 u^1/2]        1.0898              0.7145              0.5726        
  Char temp [K]                72.9240             169.6813            264.1870       
  ----------------------------------------------------------------------------------
      1   AU               0.56  0.00  0.00    0.00  0.00  0.73    0.00  0.00  0.37   
      2   AU              -0.28  0.00  0.52   -0.32  0.00 -0.36    0.63  0.00 -0.19   
      3   AU              -0.28  0.00 -0.52    0.32  0.00 -0.36   -0.63  0.00 -0.19   

  ==> Thermochemistry Components <==

  Entropy, S
    Electronic S            1.377 [cal/(mol K)]        5.763 [J/(mol K)]       0.00219507 [mEh/K] (multiplicity = 2)
    Translational S        45.013 [cal/(mol K)]      188.336 [J/(mol K)]       0.07173329 [mEh/K] (mol. weight = 590.8997 [u], P = 101325.00 [Pa])
    Rotational S           30.332 [cal/(mol K)]      126.908 [J/(mol K)]       0.04833689 [mEh/K] (symmetry no. = 2)
    Vibrational S          10.216 [cal/(mol K)]       42.743 [J/(mol K)]       0.01627980 [mEh/K]
  Total S                  86.938 [cal/(mol K)]      363.750 [J/(mol K)]       0.13854504 [mEh/K]
  Correction S              0.000 [cal/(mol K)]        0.000 [J/(mol K)]       0.00000000 [mEh/K]

  Constant volume heat capacity, Cv
    Electronic Cv           0.000 [cal/(mol K)]        0.000 [J/(mol K)]       0.00000000 [mEh/K]
    Translational Cv        2.981 [cal/(mol K)]       12.472 [J/(mol K)]       0.00475022 [mEh/K]
    Rotational Cv           2.981 [cal/(mol K)]       12.472 [J/(mol K)]       0.00475022 [mEh/K]
    Vibrational Cv          5.774 [cal/(mol K)]       24.158 [J/(mol K)]       0.00920127 [mEh/K]
  Total Cv                 11.735 [cal/(mol K)]       49.101 [J/(mol K)]       0.01870170 [mEh/K]
  Correction Cv             0.000 [cal/(mol K)]        0.000 [J/(mol K)]       0.00000000 [mEh/K]

  Constant pressure heat capacity, Cp
    Electronic Cp           0.000 [cal/(mol K)]        0.000 [J/(mol K)]       0.00000000 [mEh/K]
    Translational Cp        4.968 [cal/(mol K)]       20.786 [J/(mol K)]       0.00791703 [mEh/K]
    Rotational Cp           2.981 [cal/(mol K)]       12.472 [J/(mol K)]       0.00475022 [mEh/K]
    Vibrational Cp          5.774 [cal/(mol K)]       24.158 [J/(mol K)]       0.00920127 [mEh/K]
  Total Cp                 13.723 [cal/(mol K)]       57.416 [J/(mol K)]       0.02186851 [mEh/K]
  Correction Cp             0.000 [cal/(mol K)]        0.000 [J/(mol K)]       0.00000000 [mEh/K]

  ==> Thermochemistry Energy Analysis <==

  Raw electronic energy, E0
  Total E0, Electronic energy at well bottom at 0 [K]                 -407.35794005 [Eh]

  Zero-point energy, ZPE_vib = Sum_i nu_i / 2
    Electronic ZPE          0.000 [kcal/mol]        0.000 [kJ/mol]       0.00000000 [Eh]
    Translational ZPE       0.000 [kcal/mol]        0.000 [kJ/mol]       0.00000000 [Eh]
    Rotational ZPE          0.000 [kcal/mol]        0.000 [kJ/mol]       0.00000000 [Eh]
    Vibrational ZPE         0.504 [kcal/mol]        2.107 [kJ/mol]       0.00080246 [Eh]         176.119 [cm^-1]
  Correction ZPE            0.504 [kcal/mol]        2.107 [kJ/mol]       0.00080246 [Eh]         176.119 [cm^-1]
  Total ZPE, Electronic energy at 0 [K]                               -407.35713759 [Eh]

  Thermal Energy, E (includes ZPE)
    Electronic E            0.000 [kcal/mol]        0.000 [kJ/mol]       0.00000000 [Eh]
    Translational E         0.889 [kcal/mol]        3.718 [kJ/mol]       0.00141628 [Eh]
    Rotational E            0.889 [kcal/mol]        3.718 [kJ/mol]       0.00141628 [Eh]
    Vibrational E           1.835 [kcal/mol]        7.676 [kJ/mol]       0.00292359 [Eh]
  Correction E              3.612 [kcal/mol]       15.113 [kJ/mol]       0.00575614 [Eh]
  Total E, Electronic energy at  298.15 [K]                           -407.35218391 [Eh]

  Enthalpy, H_trans = E_trans + k_B * T
    Electronic H            0.000 [kcal/mol]        0.000 [kJ/mol]       0.00000000 [Eh]
    Translational H         1.481 [kcal/mol]        6.197 [kJ/mol]       0.00236046 [Eh]
    Rotational H            0.889 [kcal/mol]        3.718 [kJ/mol]       0.00141628 [Eh]
    Vibrational H           1.835 [kcal/mol]        7.676 [kJ/mol]       0.00292359 [Eh]
  Correction H              4.205 [kcal/mol]       17.592 [kJ/mol]       0.00670033 [Eh]
  Total H, Enthalpy at  298.15 [K]                                    -407.35123972 [Eh]

  Gibbs free energy, G = H - T * S
    Electronic G           -0.411 [kcal/mol]       -1.718 [kJ/mol]      -0.00065446 [Eh]
    Translational G       -11.940 [kcal/mol]      -49.955 [kJ/mol]      -0.01902682 [Eh]
    Rotational G           -8.155 [kcal/mol]      -34.119 [kJ/mol]      -0.01299537 [Eh]
    Vibrational G          -1.211 [kcal/mol]       -5.068 [kJ/mol]      -0.00193023 [Eh]
  Correction G            -21.716 [kcal/mol]      -90.860 [kJ/mol]      -0.03460688 [Eh]
  Total G, Free enthalpy at  298.15 [K]                               -407.39254693 [Eh]

    Psi4 stopped on: Friday, 05 November 2021 08:49AM
    Psi4 wall time for execution: 1:03:05.02

*** Psi4 exiting successfully. Buy a developer a beer!
