Too many bad steps.
Too many bad steps.
Optimizer: Optimization complete!
 3 displacements needed.
 1 2 3
Warning: used thermodynamics relations inappropriate for low-frequency modes: ['360.3520']
At level 1: Red. Int., RFO, no backsteps, dynamic trust
At level 1: Red. Int., RFO, no backsteps, dynamic trust
At level 1: Red. Int., RFO, no backsteps, dynamic trust
At level 1: Red. Int., RFO, no backsteps, dynamic trust
At level 1: Red. Int., RFO, no backsteps, dynamic trust
At level 2: Red. Int., RFO, backsteps, smaller trust.
At level 2: Red. Int., RFO, backsteps, smaller trust.
At level 2: Red. Int., RFO, backsteps, smaller trust.
At level 2: Red. Int., RFO, backsteps, smaller trust.
At level 2: Red. Int., RFO, backsteps, smaller trust.
At level 2: Red. Int., RFO, backsteps, smaller trust.
At level 2: Red. Int., RFO, backsteps, smaller trust.
At level 2: Red. Int., RFO, backsteps, smaller trust.
At level 2: Red. Int., RFO, backsteps, smaller trust.
At level 3: Red. Int. + XYZ, RFO, backsteps, smaller trust.
At level 3: Red. Int. + XYZ, RFO, backsteps, smaller trust.
At level 3: Red. Int. + XYZ, RFO, backsteps, smaller trust.
At level 3: Red. Int. + XYZ, RFO, backsteps, smaller trust.
At level 3: Red. Int. + XYZ, RFO, backsteps, smaller trust.
At level 3: Red. Int. + XYZ, RFO, backsteps, smaller trust.
At level 3: Red. Int. + XYZ, RFO, backsteps, smaller trust.
#citing-psifour

    -----------------------------------------------------------------------


    Psi4 started on: Tuesday, 02 November 2021 10:59AM

    Process ID: 14012
    Host:       compute415.bc4.acrc.priv
    PSIDATADIR: /mnt/storage/home/zw18965/.conda/envs/p4env/share/psi4
    Memory:     500.0 MiB
    Threads:    28
    
  ==> Input File <==

--------------------------------------------------------------------------
memory 144 GB

molecule {
0 1
Cu       0.000000    0.000000    1.107490 
Cu       0.000000    0.000000   -1.107490 
 }

set dynamic_level 1
set basis Def2-TZVPPD

optimize("SCAN-D3BJ")
frequencies("SCAN-D3BJ")
--------------------------------------------------------------------------

  Memory set to 134.110 GiB by Python driver.

Scratch directory: /tmp/
gradient() will perform analytic gradient computation.

*** tstart() called on compute415.bc4.acrc.priv
*** at Tue Nov  2 10:59:52 2021

   => Loading Basis Set <=

    Name: DEF2-TZVPPD
    Role: ORBITAL
    Keyword: BASIS
    atoms 1-2 entry CU         line  1290 file /mnt/storage/home/zw18965/.conda/envs/p4env/share/psi4/basis/def2-tzvppd.gbs 

   => SCAN-D3(BJ): Empirical Dispersion <=

    Grimme's -D3 (BJ-damping) Dispersion Correction
    Grimme S.; Ehrlich S.; Goerigk L. (2011), J. Comput. Chem., 32: 1456
    Parametrisation from:    J.G. Brandenburg, J. E. Bates, J. Sun, J.P. Perdew, Phys. Rev. B 94, 115144, 2016

        s6 =       1.000000
        s8 =       0.000000
        a1 =       0.538000
        a2 =       5.420000


         ---------------------------------------------------------
                                   SCF
               by Justin Turney, Rob Parrish, Andy Simmonett
                          and Daniel G. A. Smith
                              RKS Reference
                       28 Threads, 137329 MiB Core
         ---------------------------------------------------------

  ==> Geometry <==

    Molecular point group: d2h
    Full point group: D_inf_h

    Geometry (in Angstrom), charge = 0, multiplicity = 1:

       Center              X                  Y                   Z               Mass       
    ------------   -----------------  -----------------  -----------------  -----------------
         CU           0.000000000000     0.000000000000     1.107490000000    62.929597720000
         CU           0.000000000000     0.000000000000    -1.107490000000    62.929597720000

  Running in d2h symmetry.

  Rotational constants: A = ************  B =      0.10920  C =      0.10920 [cm^-1]
  Rotational constants: A = ************  B =   3273.80359  C =   3273.80359 [MHz]
  Nuclear repulsion =  200.921919915064706

  Charge       = 0
  Multiplicity = 1
  Electrons    = 58
  Nalpha       = 29
  Nbeta        = 29

  ==> Algorithm <==

  SCF Algorithm Type is DF.
  DIIS enabled.
  MOM disabled.
  Fractional occupation disabled.
  Guess Type is SAD.
  Energy threshold   = 1.00e-08
  Density threshold  = 1.00e-08
  Integral threshold = 1.00e-12

  ==> Primary Basis <==

  Basis Set: DEF2-TZVPPD
    Blend: DEF2-TZVPPD
    Number of shells: 38
    Number of basis functions: 134
    Number of Cartesian functions: 166
    Spherical Harmonics?: true
    Max angular momentum: 4

  ==> DFT Potential <==

   => Composite Functional: SCAN-D3BJ <= 

    SCAN Meta-GGA XC Functional
(10.1103/PhysRevLett.115.036402)
    J. Sun, A. Ruzsinszky, J. P. Perdew  Phys. Rev. Lett. 115, 036402, 2015


    Deriv               =              1
    GGA                 =           TRUE
    Meta                =           TRUE

    Exchange Hybrid     =          FALSE
    MP2 Hybrid          =          FALSE

   => Exchange Functionals <=

    1.0000   XC_MGGA_X_SCAN

   => Correlation Functionals <=

    1.0000   XC_MGGA_C_SCAN

   => LibXC Density Thresholds  <==

    XC_MGGA_C_SCAN:  1.00E-15 
    XC_MGGA_X_SCAN:  1.00E-15 

   => Molecular Quadrature <=

    Radial Scheme          =       TREUTLER
    Pruning Scheme         =           NONE
    Nuclear Scheme         =       TREUTLER

    BS radius alpha        =              1
    Pruning alpha          =              1
    Radial Points          =             75
    Spherical Points       =            302
    Total Points           =          43516
    Total Blocks           =            430
    Max Points             =            252
    Max Functions          =            129
    Weights Tolerance      =       1.00E-15

   => Loading Basis Set <=

    Name: (DEF2-TZVPPD AUX)
    Role: JKFIT
    Keyword: DF_BASIS_SCF
    atoms 1-2 entry CU         line  2356 file /mnt/storage/home/zw18965/.conda/envs/p4env/share/psi4/basis/def2-universal-jkfit.gbs 

  ==> Integral Setup <==

  DFHelper Memory: AOs need 0.078 GiB; user supplied 100.299 GiB. Using in-core AOs.

  ==> MemDFJK: Density-Fitted J/K Matrices <==

    J tasked:                   Yes
    K tasked:                    No
    wK tasked:                   No
    OpenMP threads:              28
    Memory [MiB]:            102706
    Algorithm:                 Core
    Schwarz Cutoff:           1E-12
    Mask sparsity (%):       4.8340
    Fitting Condition:        1E-10

   => Auxiliary Basis Set <=

  Basis Set: (DEF2-TZVPPD AUX)
    Blend: DEF2-UNIVERSAL-JKFIT
    Number of shells: 116
    Number of basis functions: 528
    Number of Cartesian functions: 754
    Spherical Harmonics?: true
    Max angular momentum: 6

  Cached 100.0% of DFT collocation blocks in 0.284 [GiB].

  Minimum eigenvalue in the overlap matrix is 1.7933381490E-03.
  Reciprocal condition number of the overlap matrix is 4.2571460006E-04.
    Using symmetric orthogonalization.

  ==> Pre-Iterations <==

  SCF Guess: Superposition of Atomic Densities via on-the-fly atomic UHF (no occupation information).

   -------------------------
    Irrep   Nso     Nmo    
   -------------------------
     Ag        27      27 
     B1g        8       8 
     B2g       16      16 
     B3g       16      16 
     Au         8       8 
     B1u       27      27 
     B2u       16      16 
     B3u       16      16 
   -------------------------
    Total     134     134
   -------------------------

  ==> Iterations <==

                           Total Energy        Delta E     RMS |[F,P]|

   @DF-RKS iter SAD: -3277.14528367354706   -3.27715e+03   0.00000e+00 
    Occupation by irrep:
             Ag   B1g   B2g   B3g    Au   B1u   B2u   B3u 
    DOCC [     8,    0,    3,    3,    0,    7,    4,    4 ]

   @DF-RKS iter   1: -3275.15007369799059    1.99521e+00   1.21085e-01 DIIS
    Occupation by irrep:
             Ag   B1g   B2g   B3g    Au   B1u   B2u   B3u 
    DOCC [     8,    1,    3,    3,    1,    7,    3,    3 ]

   @DF-RKS iter   2: -3192.98839155410087    8.21617e+01   2.56326e-01 DIIS
    Occupation by irrep:
             Ag   B1g   B2g   B3g    Au   B1u   B2u   B3u 
    DOCC [     8,    1,    3,    3,    0,    7,    3,    4 ]

   @DF-RKS iter   3: -3279.57699432795607   -8.65886e+01   5.36488e-02 DIIS
    Occupation by irrep:
             Ag   B1g   B2g   B3g    Au   B1u   B2u   B3u 
    DOCC [     8,    1,    3,    3,    1,    7,    3,    3 ]

   @DF-RKS iter   4: -3237.38781522841509    4.21892e+01   1.98866e-01 DIIS
   @DF-RKS iter   5: -3278.72548553794604   -4.13377e+01   6.58459e-02 DIIS
   @DF-RKS iter   6: -3281.10769385580807   -2.38221e+00   2.41290e-02 DIIS
   @DF-RKS iter   7: -3281.38868955779753   -2.80996e-01   5.80743e-03 DIIS
   @DF-RKS iter   8: -3281.40116138872190   -1.24718e-02   4.76140e-03 DIIS
   @DF-RKS iter   9: -3281.41158216294389   -1.04208e-02   1.08423e-03 DIIS
   @DF-RKS iter  10: -3281.41215208351559   -5.69921e-04   1.58596e-04 DIIS
   @DF-RKS iter  11: -3281.41216604265901   -1.39591e-05   6.68970e-06 DIIS
   @DF-RKS iter  12: -3281.41216607157457   -2.89156e-08   2.78864e-06 DIIS
   @DF-RKS iter  13: -3281.41216607815750   -6.58292e-09   2.58859e-07 DIIS
   @DF-RKS iter  14: -3281.41216607822298   -6.54836e-11   5.39200e-08 DIIS
   @DF-RKS iter  15: -3281.41216607822298    0.00000e+00   8.30539e-09 DIIS
  Energy and wave function converged.


  ==> Post-Iterations <==

   Electrons on quadrature grid:
      Ntotal   =   58.0000063108 ; deviation = 6.311e-06 

    Orbital Energies [Eh]
    ---------------------

    Doubly Occupied:                                                      

       1B1u -322.369674     1Ag  -322.369663     2B1u  -38.623761  
       2Ag   -38.623727     3Ag   -33.806110     3B1u  -33.806109  
       1B3g  -33.804871     1B2g  -33.804871     1B2u  -33.804868  
       1B3u  -33.804868     4Ag    -4.246910     4B1u   -4.246261  
       5Ag    -2.720924     5B1u   -2.715666     2B2u   -2.713012  
       2B3u   -2.713012     2B3g   -2.712487     2B2g   -2.712487  
       6Ag    -0.241049     3B2u   -0.215597     3B3u   -0.215597  
       1B1g   -0.195506     7Ag    -0.195478     8Ag    -0.193590  
       1Au    -0.186574     6B1u   -0.186542     3B3g   -0.179467  
       3B2g   -0.179467     7B1u   -0.177859  

    Virtual:                                                              

       8B1u   -0.103352     4B2u   -0.034174     4B3u   -0.034174  
       9Ag    -0.008371     4B2g    0.043750     4B3g    0.043750  
       9B1u    0.054808    10Ag     0.112305     5B3u    0.122808  
       5B2u    0.122808    11Ag     0.122841     5B2g    0.168056  
       5B3g    0.168056     2B1g    0.177452    12Ag     0.177456  
      10B1u    0.194166    11B1u    0.221685     6B3u    0.234390  
       6B2u    0.234390     2Au     0.256085    12B1u    0.256086  
      13Ag     0.324257     6B3g    0.346394     6B2g    0.346394  
      13B1u    0.505116    14Ag     0.635695     7B2u    0.659055  
       7B3u    0.659055     7B2g    0.740028     7B3g    0.740028  
      14B1u    0.771019     8B3u    0.826594     8B2u    0.826594  
      15Ag     0.871448     3B1g    0.871496    15B1u    0.950012  
       3Au     0.950053    16Ag     0.967663     8B3g    1.095338  
       8B2g    1.095338    16B1u    1.313043    17Ag     2.927474  
       9B2u    2.981884     9B3u    2.981884    17B1u    3.041572  
       9B3g    3.073269     9B2g    3.073269    18Ag     3.116836  
      18B1u    3.400724    10B2u    3.404575    10B3u    3.404575  
      19Ag     3.423054     4B1g    3.432064    20Ag     3.432097  
      11B3u    3.445889    11B2u    3.445889    10B2g    3.446466  
      10B3g    3.446466     4Au     3.447691    19B1u    3.447752  
      11B3g    3.464929    11B2g    3.464929    20B1u    3.603285  
       5B1g    3.658740    21Ag     3.658907     5Au     3.703430  
      21B1u    3.703537    12B2u    3.730060    12B3u    3.730060  
      12B3g    3.803906    12B2g    3.803906    22Ag     4.005786  
      22B1u    4.116431    23Ag    13.150116    13B2u   13.150265  
      13B3u   13.150265    13B3g   13.150934    13B2g   13.150934  
       6B1g   13.151090     6Au    13.151132    23B1u   13.151856  
      24Ag    13.152186    24B1u   13.152236    14B3u   13.154158  
      14B2u   13.154158    14B2g   13.154171    14B3g   13.154171  
      25Ag    13.157100    25B1u   13.157100     7B1g   13.157365  
       7Au    13.157365    26Ag    13.218369    15B2u   13.224725  
      15B3u   13.224725     8B1g   13.228823    27Ag    13.229194  
       8Au    13.232679    16B3u   13.233022    16B2u   13.233022  
      26B1u   13.233040    15B3g   13.233212    15B2g   13.233212  
      16B3g   13.257829    16B2g   13.257829    27B1u   13.384487  

    Final Occupation by Irrep:
             Ag   B1g   B2g   B3g    Au   B1u   B2u   B3u 
    DOCC [     8,    1,    3,    3,    1,    7,    3,    3 ]

  @DF-RKS Final Energy: -3281.41216607822298

   => Energetics <=

    Nuclear Repulsion Energy =            200.9219199150647057
    One-Electron Energy =               -4977.7602710437877249
    Two-Electron Energy =                1630.2319880930958789
    DFT Exchange-Correlation Energy =    -134.8056538425958308
    Empirical Dispersion Energy =          -0.0001492000000000
    VV10 Nonlocal Energy =                  0.0000000000000000
    Total Energy =                      -3281.4121660782229810

Computation Completed


Properties will be evaluated at   0.000000,   0.000000,   0.000000 [a0]

Properties computed using the SCF density matrix

  Nuclear Dipole Moment: [e a0]
     X:     0.0000      Y:     0.0000      Z:    -0.0000

  Electronic Dipole Moment: [e a0]
     X:     0.0000      Y:     0.0000      Z:     0.0000

  Dipole Moment: [e a0]
     X:     0.0000      Y:     0.0000      Z:    -0.0000     Total:     0.0000

  Dipole Moment: [D]
     X:     0.0000      Y:     0.0000      Z:    -0.0000     Total:     0.0000


*** tstop() called on compute415.bc4.acrc.priv at Tue Nov  2 10:59:55 2021
Module time:
	user time   =      42.24 seconds =       0.70 minutes
	system time =       1.92 seconds =       0.03 minutes
	total time  =          3 seconds =       0.05 minutes
Total time:
	user time   =      42.24 seconds =       0.70 minutes
	system time =       1.92 seconds =       0.03 minutes
	total time  =          3 seconds =       0.05 minutes

*** tstart() called on compute415.bc4.acrc.priv
*** at Tue Nov  2 10:59:55 2021


         ------------------------------------------------------------
                                   SCF GRAD                          
                          Rob Parrish, Justin Turney,                
                       Andy Simmonett, and Alex Sokolov              
         ------------------------------------------------------------

  ==> Geometry <==

    Molecular point group: d2h
    Full point group: D_inf_h

    Geometry (in Angstrom), charge = 0, multiplicity = 1:

       Center              X                  Y                   Z               Mass       
    ------------   -----------------  -----------------  -----------------  -----------------
         CU           0.000000000000     0.000000000000     1.107490000000    62.929597720000
         CU           0.000000000000     0.000000000000    -1.107490000000    62.929597720000

  Nuclear repulsion =  200.921919915064706

  ==> Basis Set <==

  Basis Set: DEF2-TZVPPD
    Blend: DEF2-TZVPPD
    Number of shells: 38
    Number of basis functions: 134
    Number of Cartesian functions: 166
    Spherical Harmonics?: true
    Max angular momentum: 4

  ==> DFJKGrad: Density-Fitted SCF Gradients <==

    Gradient:                    1
    J tasked:                  Yes
    K tasked:                   No
    wK tasked:                  No
    OpenMP threads:             28
    Integrals threads:          28
    Memory [MiB]:           102996
    Schwarz Cutoff:          1E-12
    Fitting Condition:       1E-10

   => Auxiliary Basis Set <=

  Basis Set: (DEF2-TZVPPD AUX)
    Blend: DEF2-UNIVERSAL-JKFIT
    Number of shells: 116
    Number of basis functions: 528
    Number of Cartesian functions: 754
    Spherical Harmonics?: true
    Max angular momentum: 6

  ==> DFT Potential <==

   => Composite Functional: SCAN-D3BJ <= 

    SCAN Meta-GGA XC Functional
(10.1103/PhysRevLett.115.036402)
    J. Sun, A. Ruzsinszky, J. P. Perdew  Phys. Rev. Lett. 115, 036402, 2015


    Deriv               =              1
    GGA                 =           TRUE
    Meta                =           TRUE

    Exchange Hybrid     =          FALSE
    MP2 Hybrid          =          FALSE

   => Exchange Functionals <=

    1.0000   XC_MGGA_X_SCAN

   => Correlation Functionals <=

    1.0000   XC_MGGA_C_SCAN

   => LibXC Density Thresholds  <==

    XC_MGGA_C_SCAN:  1.00E-15 
    XC_MGGA_X_SCAN:  1.00E-15 

   => Molecular Quadrature <=

    Radial Scheme          =       TREUTLER
    Pruning Scheme         =           NONE
    Nuclear Scheme         =       TREUTLER

    BS radius alpha        =              1
    Pruning alpha          =              1
    Radial Points          =             75
    Spherical Points       =            302
    Total Points           =          43516
    Total Blocks           =            430
    Max Points             =            252
    Max Functions          =            129
    Weights Tolerance      =       1.00E-15


  -Total Gradient:
     Atom            X                  Y                   Z
    ------   -----------------  -----------------  -----------------
       1       -0.000000000000    -0.000000000000     0.032095057673
       2        0.000000000000    -0.000000000000    -0.032095057673


*** tstop() called on compute415.bc4.acrc.priv at Tue Nov  2 11:00:03 2021
Module time:
	user time   =      40.38 seconds =       0.67 minutes
	system time =       2.25 seconds =       0.04 minutes
	total time  =          8 seconds =       0.13 minutes
Total time:
	user time   =      84.21 seconds =       1.40 minutes
	system time =       4.27 seconds =       0.07 minutes
	total time  =         11 seconds =       0.18 minutes

			-----------------------------------------
			 OPTKING 2.0: for geometry optimizations 
			  - R.A. King,  Bethel University        
			-----------------------------------------
	At level 1: Red. Int., RFO, no backsteps, dynamic trust

	Internal coordinates to be generated automatically.
	Detected frag 1 with atoms:  1 2
	---Fragment 1 Bond Connectivity---
	 1 : 2
	 2 : 1

	---Fragment 1 Geometry and Gradient---
	 CU          0.0000000000        0.0000000000        2.0928527867
	 CU          0.0000000000        0.0000000000       -2.0928527867
	            -0.0000000000       -0.0000000000        0.0320950577
	             0.0000000000       -0.0000000000       -0.0320950577

	Previous optimization step data not found.  Starting new optimization.

	---Fragment 1 Intrafragment Coordinates---
	 - Coordinate -           - BOHR/RAD -       - ANG/DEG -
	 R(1,2)           =         4.185706	       2.214980

	Current energy   :     -3281.4121660782

	Generating empirical Hessian (Schlegel '84) for each fragment.
	Taking RFO optimization step.
	Going to follow RFO solution 1.
	Using RFO vector 1.
	Norm of target step-size    0.17067
	Projected energy change by RFO approximation:         0.0088288147

	Back-transformation to cartesian coordinates...
	Successfully converged to displaced geometry.

	--- Internal Coordinate Step in ANG or DEG, aJ/ANG or AJ/DEG ---
	 ---------------------------------------------------------------------------
	   Coordinate                Previous        Force       Change         New 
	   ----------                --------       ------       ------       ------
	    1 R(1,2)          =      2.214980    -0.264422    -0.090313     2.124667
	 ---------------------------------------------------------------------------
	Successfully symmetrized geometry.

  ==> Convergence Check <==

  Measures of convergence in internal coordinates in au.
  Criteria marked as inactive (o), active & met (*), and active & unmet ( ).
  --------------------------------------------------------------------------------------------- ~
   Step     Total Energy     Delta E     MAX Force     RMS Force      MAX Disp      RMS Disp    ~
  --------------------------------------------------------------------------------------------- ~
    Convergence Criteria    1.00e-06 *    3.00e-04 *             o    1.20e-03 *             o  ~
  --------------------------------------------------------------------------------------------- ~
      1   -3281.41216608   -3.28e+03      3.21e-02      3.21e-02 o    1.71e-01      1.71e-01 o  ~
  ---------------------------------------------------------------------------------------------

	Writing optimization data to binary file.
	Structure for next step:
	Cartesian Geometry (in Angstrom)
	   CU     0.0000000000   0.0000000000   1.0623335921
	   CU     0.0000000000   0.0000000000  -1.0623335921
			--------------------------
			 OPTKING Finished Execution 
			--------------------------

    Structure for next step:
    Molecular point group: d2h
    Full point group: D_inf_h

    Geometry (in Angstrom), charge = 0, multiplicity = 1:

    CU           0.000000000000     0.000000000000     1.062333596324
    CU           0.000000000000     0.000000000000    -1.062333596324


Scratch directory: /tmp/
gradient() will perform analytic gradient computation.

*** tstart() called on compute415.bc4.acrc.priv
*** at Tue Nov  2 11:00:03 2021

   => Loading Basis Set <=

    Name: DEF2-TZVPPD
    Role: ORBITAL
    Keyword: BASIS
    atoms 1-2 entry CU         line  1290 file /mnt/storage/home/zw18965/.conda/envs/p4env/share/psi4/basis/def2-tzvppd.gbs 

   => SCAN-D3(BJ): Empirical Dispersion <=

    Grimme's -D3 (BJ-damping) Dispersion Correction
    Grimme S.; Ehrlich S.; Goerigk L. (2011), J. Comput. Chem., 32: 1456
    Parametrisation from:    J.G. Brandenburg, J. E. Bates, J. Sun, J.P. Perdew, Phys. Rev. B 94, 115144, 2016

        s6 =       1.000000
        s8 =       0.000000
        a1 =       0.538000
        a2 =       5.420000


         ---------------------------------------------------------
                                   SCF
               by Justin Turney, Rob Parrish, Andy Simmonett
                          and Daniel G. A. Smith
                              RKS Reference
                       28 Threads, 137329 MiB Core
         ---------------------------------------------------------

  ==> Geometry <==

    Molecular point group: d2h
    Full point group: D_inf_h

    Geometry (in Angstrom), charge = 0, multiplicity = 1:

       Center              X                  Y                   Z               Mass       
    ------------   -----------------  -----------------  -----------------  -----------------
         CU           0.000000000000     0.000000000000     1.062333596324    62.929597720000
         CU           0.000000000000     0.000000000000    -1.062333596324    62.929597720000

  Running in d2h symmetry.

  Rotational constants: A = ************  B =      0.11868  C =      0.11868 [cm^-1]
  Rotational constants: A = ************  B =   3558.03664  C =   3558.03664 [MHz]
  Nuclear repulsion =  209.462468151999275

  Charge       = 0
  Multiplicity = 1
  Electrons    = 58
  Nalpha       = 29
  Nbeta        = 29

  ==> Algorithm <==

  SCF Algorithm Type is DF.
  DIIS enabled.
  MOM disabled.
  Fractional occupation disabled.
  Guess Type is READ.
  Energy threshold   = 1.00e-08
  Density threshold  = 1.00e-08
  Integral threshold = 1.00e-12

  ==> Primary Basis <==

  Basis Set: DEF2-TZVPPD
    Blend: DEF2-TZVPPD
    Number of shells: 38
    Number of basis functions: 134
    Number of Cartesian functions: 166
    Spherical Harmonics?: true
    Max angular momentum: 4

  ==> DFT Potential <==

   => Composite Functional: SCAN-D3BJ <= 

    SCAN Meta-GGA XC Functional
(10.1103/PhysRevLett.115.036402)
    J. Sun, A. Ruzsinszky, J. P. Perdew  Phys. Rev. Lett. 115, 036402, 2015


    Deriv               =              1
    GGA                 =           TRUE
    Meta                =           TRUE

    Exchange Hybrid     =          FALSE
    MP2 Hybrid          =          FALSE

   => Exchange Functionals <=

    1.0000   XC_MGGA_X_SCAN

   => Correlation Functionals <=

    1.0000   XC_MGGA_C_SCAN

   => LibXC Density Thresholds  <==

    XC_MGGA_C_SCAN:  1.00E-15 
    XC_MGGA_X_SCAN:  1.00E-15 

   => Molecular Quadrature <=

    Radial Scheme          =       TREUTLER
    Pruning Scheme         =           NONE
    Nuclear Scheme         =       TREUTLER

    BS radius alpha        =              1
    Pruning alpha          =              1
    Radial Points          =             75
    Spherical Points       =            302
    Total Points           =          43498
    Total Blocks           =            428
    Max Points             =            252
    Max Functions          =            129
    Weights Tolerance      =       1.00E-15

   => Loading Basis Set <=

    Name: (DEF2-TZVPPD AUX)
    Role: JKFIT
    Keyword: DF_BASIS_SCF
    atoms 1-2 entry CU         line  2356 file /mnt/storage/home/zw18965/.conda/envs/p4env/share/psi4/basis/def2-universal-jkfit.gbs 

   => Loading Basis Set <=

    Name: DEF2-TZVPPD
    Role: ORBITAL
    Keyword: BASIS
    atoms 1-2 entry CU         line  1290 file /mnt/storage/home/zw18965/.conda/envs/p4env/share/psi4/basis/def2-tzvppd.gbs 

  Reading orbitals from file /tmp/Cu02N0.default.14012.180.npy, no projection.

  ==> Integral Setup <==

  DFHelper Memory: AOs need 0.079 GiB; user supplied 100.298 GiB. Using in-core AOs.

  ==> MemDFJK: Density-Fitted J/K Matrices <==

    J tasked:                   Yes
    K tasked:                    No
    wK tasked:                   No
    OpenMP threads:              28
    Memory [MiB]:            102705
    Algorithm:                 Core
    Schwarz Cutoff:           1E-12
    Mask sparsity (%):       3.8427
    Fitting Condition:        1E-10

   => Auxiliary Basis Set <=

  Basis Set: (DEF2-TZVPPD AUX)
    Blend: DEF2-UNIVERSAL-JKFIT
    Number of shells: 116
    Number of basis functions: 528
    Number of Cartesian functions: 754
    Spherical Harmonics?: true
    Max angular momentum: 6

  Cached 100.0% of DFT collocation blocks in 0.285 [GiB].

  Minimum eigenvalue in the overlap matrix is 1.5963564154E-03.
  Reciprocal condition number of the overlap matrix is 3.7255571808E-04.
    Using symmetric orthogonalization.

  ==> Pre-Iterations <==

  SCF Guess: Orbitals guess was supplied from a previous computation.

   -------------------------------------------------------
    Irrep   Nso     Nmo     Nalpha   Nbeta   Ndocc  Nsocc
   -------------------------------------------------------
     Ag        27      27       8       8       8       0
     B1g        8       8       1       1       1       0
     B2g       16      16       3       3       3       0
     B3g       16      16       3       3       3       0
     Au         8       8       1       1       1       0
     B1u       27      27       7       7       7       0
     B2u       16      16       3       3       3       0
     B3u       16      16       3       3       3       0
   -------------------------------------------------------
    Total     134     134      29      29      29       0
   -------------------------------------------------------

  ==> Iterations <==

                           Total Energy        Delta E     RMS |[F,P]|

   @DF-RKS iter   0: -3281.39981126907605   -3.28140e+03   5.22151e-03 
   @DF-RKS iter   1: -3281.41091563717600   -1.11044e-02   2.05412e-04 DIIS
   @DF-RKS iter   2: -3281.41058696504297    3.28672e-04   8.95331e-04 DIIS
   @DF-RKS iter   3: -3281.41094969686401   -3.62732e-04   1.67564e-04 DIIS
   @DF-RKS iter   4: -3281.41096778085284   -1.80840e-05   3.71377e-05 DIIS
   @DF-RKS iter   5: -3281.41096855426804   -7.73415e-07   4.29298e-06 DIIS
   @DF-RKS iter   6: -3281.41096856545482   -1.11868e-08   1.90413e-07 DIIS
   @DF-RKS iter   7: -3281.41096856550530   -5.04770e-11   1.04249e-07 DIIS
   @DF-RKS iter   8: -3281.41096856551349   -8.18545e-12   2.05288e-08 DIIS
   @DF-RKS iter   9: -3281.41096856551258    9.09495e-13   5.88173e-10 DIIS
  Energy and wave function converged.


  ==> Post-Iterations <==

   Electrons on quadrature grid:
      Ntotal   =   58.0000150721 ; deviation = 1.507e-05 

    Orbital Energies [Eh]
    ---------------------

    Doubly Occupied:                                                      

       1B1u -322.371191     1Ag  -322.371181     2B1u  -38.625830  
       2Ag   -38.625798     3Ag   -33.808293     3B1u  -33.808291  
       1B2g  -33.806802     1B3g  -33.806802     1B3u  -33.806798  
       1B2u  -33.806798     4Ag    -4.249261     4B1u   -4.248163  
       5Ag    -2.725216     5B1u   -2.717285     2B3u   -2.714889  
       2B2u   -2.714889     2B2g   -2.714064     2B3g   -2.714064  
       6Ag    -0.248351     3B3u   -0.222192     3B2u   -0.222192  
       1B1g   -0.198001     7Ag    -0.197964     8Ag    -0.196811  
       1Au    -0.186995     6B1u   -0.186964     3B2g   -0.178532  
       3B3g   -0.178532     7B1u   -0.176588  

    Virtual:                                                              

       8B1u   -0.100829     4B3u   -0.035264     4B2u   -0.035264  
       9Ag    -0.005744     4B3g    0.046281     4B2g    0.046281  
       9B1u    0.055025    10Ag     0.113626     5B2u    0.121925  
       5B3u    0.121925    11Ag     0.122829     5B3g    0.169988  
       5B2g    0.169988     2B1g    0.177980    12Ag     0.177981  
      10B1u    0.196290    11B1u    0.226668     6B2u    0.237897  
       6B3u    0.237897     2Au     0.258715    12B1u    0.258715  
      13Ag     0.325656     6B3g    0.350720     6B2g    0.350720  
      13B1u    0.520187    14Ag     0.640692     7B2u    0.651416  
       7B3u    0.651416     7B3g    0.747012     7B2g    0.747012  
      14B1u    0.777821     8B2u    0.834911     8B3u    0.834911  
       3B1g    0.865303    15Ag     0.865383    15B1u    0.955748  
       3Au     0.955799    16Ag     0.982720     8B3g    1.107478  
       8B2g    1.107478    16B1u    1.342070    17Ag     2.933274  
       9B2u    2.985227     9B3u    2.985227    17B1u    3.030412  
       9B2g    3.074319     9B3g    3.074319    18Ag     3.168680  
      19Ag     3.369100    10B3u    3.391654    10B2u    3.391654  
       4B1g    3.424271    20Ag     3.424345    18B1u    3.424690  
      11B3u    3.444987    11B2u    3.444987    10B2g    3.446212  
      10B3g    3.446212     4Au     3.450290    19B1u    3.450416  
      11B2g    3.487356    11B3g    3.487356    20B1u    3.658909  
       5B1g    3.660421    21Ag     3.660636     5Au     3.704927  
      21B1u    3.705032    12B3u    3.742353    12B2u    3.742353  
      12B2g    3.810567    12B3g    3.810567    22Ag     4.030504  
      22B1u    4.133432    23Ag    13.146439    13B2u   13.147613  
      13B3u   13.147613    13B3g   13.148586    13B2g   13.148586  
      23B1u   13.148720     6B1g   13.148881     6Au    13.148970  
      24Ag    13.149940    24B1u   13.150049    14B3u   13.152305  
      14B2u   13.152305    14B2g   13.152326    14B3g   13.152326  
      25Ag    13.155614    25B1u   13.155616     7B1g   13.156013  
       7Au    13.156013    26Ag    13.198160    15B3u   13.214707  
      15B2u   13.214707     8B1g   13.225005    27Ag    13.225473  
      16B3u   13.231208    16B2u   13.231208    15B2g   13.231630  
      15B3g   13.231630     8Au    13.232565    26B1u   13.233013  
      16B2g   13.273288    16B3g   13.273288    27B1u   13.438515  

    Final Occupation by Irrep:
             Ag   B1g   B2g   B3g    Au   B1u   B2u   B3u 
    DOCC [     8,    1,    3,    3,    1,    7,    3,    3 ]

  @DF-RKS Final Energy: -3281.41096856551258

   => Energetics <=

    Nuclear Repulsion Energy =            209.4624681519992748
    One-Electron Energy =               -4994.7067256671771247
    Two-Electron Energy =                1638.6513212301963449
    DFT Exchange-Correlation Energy =    -134.8178832205309732
    Empirical Dispersion Energy =          -0.0001490600000000
    VV10 Nonlocal Energy =                  0.0000000000000000
    Total Energy =                      -3281.4109685655125759

Computation Completed


Properties will be evaluated at   0.000000,   0.000000,   0.000000 [a0]

Properties computed using the SCF density matrix

  Nuclear Dipole Moment: [e a0]
     X:     0.0000      Y:     0.0000      Z:    -0.0000

  Electronic Dipole Moment: [e a0]
     X:     0.0000      Y:     0.0000      Z:     0.0000

  Dipole Moment: [e a0]
     X:     0.0000      Y:     0.0000      Z:    -0.0000     Total:     0.0000

  Dipole Moment: [D]
     X:     0.0000      Y:     0.0000      Z:    -0.0000     Total:     0.0000


*** tstop() called on compute415.bc4.acrc.priv at Tue Nov  2 11:00:05 2021
Module time:
	user time   =      35.03 seconds =       0.58 minutes
	system time =       1.70 seconds =       0.03 minutes
	total time  =          2 seconds =       0.03 minutes
Total time:
	user time   =     119.79 seconds =       2.00 minutes
	system time =       5.99 seconds =       0.10 minutes
	total time  =         13 seconds =       0.22 minutes

*** tstart() called on compute415.bc4.acrc.priv
*** at Tue Nov  2 11:00:05 2021


         ------------------------------------------------------------
                                   SCF GRAD                          
                          Rob Parrish, Justin Turney,                
                       Andy Simmonett, and Alex Sokolov              
         ------------------------------------------------------------

  ==> Geometry <==

    Molecular point group: d2h
    Full point group: D_inf_h

    Geometry (in Angstrom), charge = 0, multiplicity = 1:

       Center              X                  Y                   Z               Mass       
    ------------   -----------------  -----------------  -----------------  -----------------
         CU           0.000000000000     0.000000000000     1.062333596324    62.929597720000
         CU           0.000000000000     0.000000000000    -1.062333596324    62.929597720000

  Nuclear repulsion =  209.462468151999275

  ==> Basis Set <==

  Basis Set: DEF2-TZVPPD
    Blend: DEF2-TZVPPD
    Number of shells: 38
    Number of basis functions: 134
    Number of Cartesian functions: 166
    Spherical Harmonics?: true
    Max angular momentum: 4

  ==> DFJKGrad: Density-Fitted SCF Gradients <==

    Gradient:                    1
    J tasked:                  Yes
    K tasked:                   No
    wK tasked:                  No
    OpenMP threads:             28
    Integrals threads:          28
    Memory [MiB]:           102996
    Schwarz Cutoff:          1E-12
    Fitting Condition:       1E-10

   => Auxiliary Basis Set <=

  Basis Set: (DEF2-TZVPPD AUX)
    Blend: DEF2-UNIVERSAL-JKFIT
    Number of shells: 116
    Number of basis functions: 528
    Number of Cartesian functions: 754
    Spherical Harmonics?: true
    Max angular momentum: 6

  ==> DFT Potential <==

   => Composite Functional: SCAN-D3BJ <= 

    SCAN Meta-GGA XC Functional
(10.1103/PhysRevLett.115.036402)
    J. Sun, A. Ruzsinszky, J. P. Perdew  Phys. Rev. Lett. 115, 036402, 2015


    Deriv               =              1
    GGA                 =           TRUE
    Meta                =           TRUE

    Exchange Hybrid     =          FALSE
    MP2 Hybrid          =          FALSE

   => Exchange Functionals <=

    1.0000   XC_MGGA_X_SCAN

   => Correlation Functionals <=

    1.0000   XC_MGGA_C_SCAN

   => LibXC Density Thresholds  <==

    XC_MGGA_C_SCAN:  1.00E-15 
    XC_MGGA_X_SCAN:  1.00E-15 

   => Molecular Quadrature <=

    Radial Scheme          =       TREUTLER
    Pruning Scheme         =           NONE
    Nuclear Scheme         =       TREUTLER

    BS radius alpha        =              1
    Pruning alpha          =              1
    Radial Points          =             75
    Spherical Points       =            302
    Total Points           =          43498
    Total Blocks           =            428
    Max Points             =            252
    Max Functions          =            129
    Weights Tolerance      =       1.00E-15


  -Total Gradient:
     Atom            X                  Y                   Z
    ------   -----------------  -----------------  -----------------
       1        0.000000000000     0.000000000000     0.016105900363
       2        0.000000000000     0.000000000000    -0.016105900363


*** tstop() called on compute415.bc4.acrc.priv at Tue Nov  2 11:00:13 2021
Module time:
	user time   =      44.59 seconds =       0.74 minutes
	system time =       1.86 seconds =       0.03 minutes
	total time  =          8 seconds =       0.13 minutes
Total time:
	user time   =     167.71 seconds =       2.80 minutes
	system time =       8.00 seconds =       0.13 minutes
	total time  =         21 seconds =       0.35 minutes

			-----------------------------------------
			 OPTKING 2.0: for geometry optimizations 
			  - R.A. King,  Bethel University        
			-----------------------------------------
	At level 1: Red. Int., RFO, no backsteps, dynamic trust

	Previous internal coordinate definitions found.
	---Fragment 1 Geometry and Gradient---
	 CU          0.0000000000        0.0000000000        2.0075195509
	 CU          0.0000000000        0.0000000000       -2.0075195509
	             0.0000000000        0.0000000000        0.0161059004
	             0.0000000000        0.0000000000       -0.0161059004

	---Fragment 1 Intrafragment Coordinates---
	 - Coordinate -           - BOHR/RAD -       - ANG/DEG -
	 R(1,2)           =         4.015039	       2.124667

	Current energy   :     -3281.4109685655

	Energy change for the previous step:
		Projected    :         0.0088288147
		Actual       :         0.0011975127

	Performing BFGS update.
	Previous computed or guess Hessian on step 1.
	Steps to be used in Hessian update: 1
	Taking RFO optimization step.
	Going to follow RFO solution 1.
	Using RFO vector 1.
	Norm of target step-size    0.16711
	Projected energy change by RFO approximation:         0.0109654494

	Back-transformation to cartesian coordinates...
	Successfully converged to displaced geometry.

	--- Internal Coordinate Step in ANG or DEG, aJ/ANG or AJ/DEG ---
	 ---------------------------------------------------------------------------
	   Coordinate                Previous        Force       Change         New 
	   ----------                --------       ------       ------       ------
	    1 R(1,2)          =      2.124667    -0.132692    -0.088432     2.036235
	 ---------------------------------------------------------------------------
	Successfully symmetrized geometry.

  ==> Convergence Check <==

  Measures of convergence in internal coordinates in au.
  Criteria marked as inactive (o), active & met (*), and active & unmet ( ).
  ---------------------------------------------------------------------------------------------
   Step     Total Energy     Delta E     MAX Force     RMS Force      MAX Disp      RMS Disp   
  ---------------------------------------------------------------------------------------------
    Convergence Criteria    1.00e-06 *    3.00e-04 *             o    1.20e-03 *             o
  ---------------------------------------------------------------------------------------------
      2   -3281.41096857    1.20e-03      1.61e-02      1.61e-02 o    1.67e-01      1.67e-01 o  ~
  ---------------------------------------------------------------------------------------------

	Writing optimization data to binary file.
	Structure for next step:
	Cartesian Geometry (in Angstrom)
	   CU     0.0000000000   0.0000000000   1.0181177436
	   CU     0.0000000000   0.0000000000  -1.0181177436
			--------------------------
			 OPTKING Finished Execution 
			--------------------------

    Structure for next step:
    Molecular point group: d2h
    Full point group: D_inf_h

    Geometry (in Angstrom), charge = 0, multiplicity = 1:

    CU           0.000000000000     0.000000000000     1.018117747645
    CU           0.000000000000     0.000000000000    -1.018117747645


Scratch directory: /tmp/
gradient() will perform analytic gradient computation.

*** tstart() called on compute415.bc4.acrc.priv
*** at Tue Nov  2 11:00:13 2021

   => Loading Basis Set <=

    Name: DEF2-TZVPPD
    Role: ORBITAL
    Keyword: BASIS
    atoms 1-2 entry CU         line  1290 file /mnt/storage/home/zw18965/.conda/envs/p4env/share/psi4/basis/def2-tzvppd.gbs 

   => SCAN-D3(BJ): Empirical Dispersion <=

    Grimme's -D3 (BJ-damping) Dispersion Correction
    Grimme S.; Ehrlich S.; Goerigk L. (2011), J. Comput. Chem., 32: 1456
    Parametrisation from:    J.G. Brandenburg, J. E. Bates, J. Sun, J.P. Perdew, Phys. Rev. B 94, 115144, 2016

        s6 =       1.000000
        s8 =       0.000000
        a1 =       0.538000
        a2 =       5.420000


         ---------------------------------------------------------
                                   SCF
               by Justin Turney, Rob Parrish, Andy Simmonett
                          and Daniel G. A. Smith
                              RKS Reference
                       28 Threads, 137329 MiB Core
         ---------------------------------------------------------

  ==> Geometry <==

    Molecular point group: d2h
    Full point group: D_inf_h

    Geometry (in Angstrom), charge = 0, multiplicity = 1:

       Center              X                  Y                   Z               Mass       
    ------------   -----------------  -----------------  -----------------  -----------------
         CU           0.000000000000     0.000000000000     1.018117747645    62.929597720000
         CU           0.000000000000     0.000000000000    -1.018117747645    62.929597720000

  Running in d2h symmetry.

  Rotational constants: A = ************  B =      0.12922  C =      0.12922 [cm^-1]
  Rotational constants: A = ************  B =   3873.79141  C =   3873.79141 [MHz]
  Nuclear repulsion =  218.559216359283369

  Charge       = 0
  Multiplicity = 1
  Electrons    = 58
  Nalpha       = 29
  Nbeta        = 29

  ==> Algorithm <==

  SCF Algorithm Type is DF.
  DIIS enabled.
  MOM disabled.
  Fractional occupation disabled.
  Guess Type is READ.
  Energy threshold   = 1.00e-08
  Density threshold  = 1.00e-08
  Integral threshold = 1.00e-12

  ==> Primary Basis <==

  Basis Set: DEF2-TZVPPD
    Blend: DEF2-TZVPPD
    Number of shells: 38
    Number of basis functions: 134
    Number of Cartesian functions: 166
    Spherical Harmonics?: true
    Max angular momentum: 4

  ==> DFT Potential <==

   => Composite Functional: SCAN-D3BJ <= 

    SCAN Meta-GGA XC Functional
(10.1103/PhysRevLett.115.036402)
    J. Sun, A. Ruzsinszky, J. P. Perdew  Phys. Rev. Lett. 115, 036402, 2015


    Deriv               =              1
    GGA                 =           TRUE
    Meta                =           TRUE

    Exchange Hybrid     =          FALSE
    MP2 Hybrid          =          FALSE

   => Exchange Functionals <=

    1.0000   XC_MGGA_X_SCAN

   => Correlation Functionals <=

    1.0000   XC_MGGA_C_SCAN

   => LibXC Density Thresholds  <==

    XC_MGGA_C_SCAN:  1.00E-15 
    XC_MGGA_X_SCAN:  1.00E-15 

   => Molecular Quadrature <=

    Radial Scheme          =       TREUTLER
    Pruning Scheme         =           NONE
    Nuclear Scheme         =       TREUTLER

    BS radius alpha        =              1
    Pruning alpha          =              1
    Radial Points          =             75
    Spherical Points       =            302
    Total Points           =          43498
    Total Blocks           =            428
    Max Points             =            252
    Max Functions          =            129
    Weights Tolerance      =       1.00E-15

   => Loading Basis Set <=

    Name: (DEF2-TZVPPD AUX)
    Role: JKFIT
    Keyword: DF_BASIS_SCF
    atoms 1-2 entry CU         line  2356 file /mnt/storage/home/zw18965/.conda/envs/p4env/share/psi4/basis/def2-universal-jkfit.gbs 

   => Loading Basis Set <=

    Name: DEF2-TZVPPD
    Role: ORBITAL
    Keyword: BASIS
    atoms 1-2 entry CU         line  1290 file /mnt/storage/home/zw18965/.conda/envs/p4env/share/psi4/basis/def2-tzvppd.gbs 

  Reading orbitals from file /tmp/Cu02N0.default.14012.180.npy, no projection.

  ==> Integral Setup <==

  DFHelper Memory: AOs need 0.079 GiB; user supplied 100.296 GiB. Using in-core AOs.

  ==> MemDFJK: Density-Fitted J/K Matrices <==

    J tasked:                   Yes
    K tasked:                    No
    wK tasked:                   No
    OpenMP threads:              28
    Memory [MiB]:            102702
    Algorithm:                 Core
    Schwarz Cutoff:           1E-12
    Mask sparsity (%):       3.1521
    Fitting Condition:        1E-10

   => Auxiliary Basis Set <=

  Basis Set: (DEF2-TZVPPD AUX)
    Blend: DEF2-UNIVERSAL-JKFIT
    Number of shells: 116
    Number of basis functions: 528
    Number of Cartesian functions: 754
    Spherical Harmonics?: true
    Max angular momentum: 6

  Cached 100.0% of DFT collocation blocks in 0.287 [GiB].

  Minimum eigenvalue in the overlap matrix is 1.4048411659E-03.
  Reciprocal condition number of the overlap matrix is 3.2231569721E-04.
    Using symmetric orthogonalization.

  ==> Pre-Iterations <==

  SCF Guess: Orbitals guess was supplied from a previous computation.

   -------------------------------------------------------
    Irrep   Nso     Nmo     Nalpha   Nbeta   Ndocc  Nsocc
   -------------------------------------------------------
     Ag        27      27       8       8       8       0
     B1g        8       8       1       1       1       0
     B2g       16      16       3       3       3       0
     B3g       16      16       3       3       3       0
     Au         8       8       1       1       1       0
     B1u       27      27       7       7       7       0
     B2u       16      16       3       3       3       0
     B3u       16      16       3       3       3       0
   -------------------------------------------------------
    Total     134     134      29      29      29       0
   -------------------------------------------------------

  ==> Iterations <==

                           Total Energy        Delta E     RMS |[F,P]|

   @DF-RKS iter   0: -3281.39245314093660   -3.28139e+03   5.96823e-03 
   @DF-RKS iter   1: -3281.40611565739982   -1.36625e-02   1.10012e-04 DIIS
   @DF-RKS iter   2: -3281.40612699375333   -1.13364e-05   6.73730e-05 DIIS
   @DF-RKS iter   3: -3281.40612987858458   -2.88483e-06   2.27586e-05 DIIS
   @DF-RKS iter   4: -3281.40612988216344   -3.57886e-09   2.80171e-05 DIIS
   @DF-RKS iter   5: -3281.40613022599518   -3.43832e-07   2.83680e-06 DIIS
   @DF-RKS iter   6: -3281.40613023483593   -8.84074e-09   2.30144e-07 DIIS
   @DF-RKS iter   7: -3281.40613023488049   -4.45652e-11   8.10893e-08 DIIS
   @DF-RKS iter   8: -3281.40613023488640   -5.91172e-12   2.94712e-08 DIIS
   @DF-RKS iter   9: -3281.40613023488731   -9.09495e-13   9.13022e-10 DIIS
  Energy and wave function converged.


  ==> Post-Iterations <==

   Electrons on quadrature grid:
      Ntotal   =   58.0000203663 ; deviation = 2.037e-05 

    Orbital Energies [Eh]
    ---------------------

    Doubly Occupied:                                                      

       1B1u -322.372977     1Ag  -322.372967     2B1u  -38.628195  
       2Ag   -38.628165     3Ag   -33.810769     3B1u  -33.810768  
       1B3g  -33.809024     1B2g  -33.809024     1B2u  -33.809020  
       1B3u  -33.809020     4Ag    -4.252249     4B1u   -4.250418  
       5Ag    -2.730882     5B1u   -2.718990     2B3u   -2.717270  
       2B2u   -2.717270     2B2g   -2.715984     2B3g   -2.715984  
       6Ag    -0.256496     3B2u   -0.230229     3B3u   -0.230229  
       1B1g   -0.201172     7Ag    -0.201134     8Ag    -0.200538  
       1Au    -0.187599     6B1u   -0.187583     3B3g   -0.177457  
       3B2g   -0.177457     7B1u   -0.175053  

    Virtual:                                                              

       8B1u   -0.098358     4B3u   -0.036437     4B2u   -0.036437  
       9Ag    -0.002873     4B3g    0.048788     4B2g    0.048788  
       9B1u    0.055234    10Ag     0.114863     5B3u    0.121086  
       5B2u    0.121086    11Ag     0.123114     5B3g    0.171992  
       5B2g    0.171992    12Ag     0.178526     2B1g    0.178529  
      10B1u    0.198636    11B1u    0.231316     6B2u    0.241285  
       6B3u    0.241285     2Au     0.261365    12B1u    0.261365  
      13Ag     0.326947     6B3g    0.355229     6B2g    0.355229  
      13B1u    0.534154     7B2u    0.644241     7B3u    0.644241  
      14Ag     0.647388     7B3g    0.754811     7B2g    0.754811  
      14B1u    0.786495     8B2u    0.845804     8B3u    0.845804  
       3B1g    0.858721    15Ag     0.858930    15B1u    0.961500  
       3Au     0.961528    16Ag     0.997140     8B3g    1.117966  
       8B2g    1.117966    16B1u    1.370826    17Ag     2.940727  
       9B2u    2.990304     9B3u    2.990304    17B1u    3.037912  
       9B3g    3.075933     9B2g    3.075933    18Ag     3.203911  
      19Ag     3.286407    10B2u    3.368617    10B3u    3.368617  
       4B1g    3.412996    20Ag     3.413102    11B3u    3.443330  
      11B2u    3.443330    18B1u    3.445550    10B2g    3.445796  
      10B3g    3.445796     4Au     3.455192    19B1u    3.455345  
      11B2g    3.524885    11B3g    3.524885     5B1g    3.662270  
      21Ag     3.662443     5Au     3.706221    20B1u    3.706310  
      21B1u    3.727266    12B3u    3.744196    12B2u    3.744196  
      12B2g    3.818599    12B3g    3.818599    22Ag     4.042195  
      22B1u    4.148181    23Ag    13.138950    13B2u   13.143802  
      13B3u   13.143802    23B1u   13.144160    13B3g   13.145194  
      13B2g   13.145194     6B1g   13.146096     6Au    13.146275  
      24Ag    13.147098    24B1u   13.147324    14B3u   13.149916  
      14B2u   13.149916    14B2g   13.149946    14B3g   13.149946  
      25Ag    13.153692    25B1u   13.153695     7B1g   13.154281  
       7Au    13.154281    26Ag    13.177581    15B2u   13.198783  
      15B3u   13.198783     8B1g   13.219446    27Ag    13.220006  
      16B3u   13.228900    16B2u   13.228900    15B2g   13.229783  
      15B3g   13.229783     8Au    13.233668    26B1u   13.234181  
      16B3g   13.297033    16B2g   13.297033    27B1u   13.500757  

    Final Occupation by Irrep:
             Ag   B1g   B2g   B3g    Au   B1u   B2u   B3u 
    DOCC [     8,    1,    3,    3,    1,    7,    3,    3 ]

  @DF-RKS Final Energy: -3281.40613023488731

   => Energetics <=

    Nuclear Repulsion Energy =            218.5592163592833685
    One-Electron Energy =               -5012.7314966781950716
    Two-Electron Energy =                1647.5997903170152767
    DFT Exchange-Correlation Energy =    -134.8334911829913949
    Empirical Dispersion Energy =          -0.0001490500000000
    VV10 Nonlocal Energy =                  0.0000000000000000
    Total Energy =                      -3281.4061302348873141

Computation Completed


Properties will be evaluated at   0.000000,   0.000000,   0.000000 [a0]

Properties computed using the SCF density matrix

  Nuclear Dipole Moment: [e a0]
     X:     0.0000      Y:     0.0000      Z:     0.0000

  Electronic Dipole Moment: [e a0]
     X:     0.0000      Y:     0.0000      Z:     0.0000

  Dipole Moment: [e a0]
     X:     0.0000      Y:     0.0000      Z:     0.0000     Total:     0.0000

  Dipole Moment: [D]
     X:     0.0000      Y:     0.0000      Z:     0.0000     Total:     0.0000


*** tstop() called on compute415.bc4.acrc.priv at Tue Nov  2 11:00:14 2021
Module time:
	user time   =      29.12 seconds =       0.49 minutes
	system time =       1.12 seconds =       0.02 minutes
	total time  =          1 seconds =       0.02 minutes
Total time:
	user time   =     197.40 seconds =       3.29 minutes
	system time =       9.15 seconds =       0.15 minutes
	total time  =         22 seconds =       0.37 minutes

*** tstart() called on compute415.bc4.acrc.priv
*** at Tue Nov  2 11:00:14 2021


         ------------------------------------------------------------
                                   SCF GRAD                          
                          Rob Parrish, Justin Turney,                
                       Andy Simmonett, and Alex Sokolov              
         ------------------------------------------------------------

  ==> Geometry <==

    Molecular point group: d2h
    Full point group: D_inf_h

    Geometry (in Angstrom), charge = 0, multiplicity = 1:

       Center              X                  Y                   Z               Mass       
    ------------   -----------------  -----------------  -----------------  -----------------
         CU           0.000000000000     0.000000000000     1.018117747645    62.929597720000
         CU           0.000000000000     0.000000000000    -1.018117747645    62.929597720000

  Nuclear repulsion =  218.559216359283369

  ==> Basis Set <==

  Basis Set: DEF2-TZVPPD
    Blend: DEF2-TZVPPD
    Number of shells: 38
    Number of basis functions: 134
    Number of Cartesian functions: 166
    Spherical Harmonics?: true
    Max angular momentum: 4

  ==> DFJKGrad: Density-Fitted SCF Gradients <==

    Gradient:                    1
    J tasked:                  Yes
    K tasked:                   No
    wK tasked:                  No
    OpenMP threads:             28
    Integrals threads:          28
    Memory [MiB]:           102996
    Schwarz Cutoff:          1E-12
    Fitting Condition:       1E-10

   => Auxiliary Basis Set <=

  Basis Set: (DEF2-TZVPPD AUX)
    Blend: DEF2-UNIVERSAL-JKFIT
    Number of shells: 116
    Number of basis functions: 528
    Number of Cartesian functions: 754
    Spherical Harmonics?: true
    Max angular momentum: 6

  ==> DFT Potential <==

   => Composite Functional: SCAN-D3BJ <= 

    SCAN Meta-GGA XC Functional
(10.1103/PhysRevLett.115.036402)
    J. Sun, A. Ruzsinszky, J. P. Perdew  Phys. Rev. Lett. 115, 036402, 2015


    Deriv               =              1
    GGA                 =           TRUE
    Meta                =           TRUE

    Exchange Hybrid     =          FALSE
    MP2 Hybrid          =          FALSE

   => Exchange Functionals <=

    1.0000   XC_MGGA_X_SCAN

   => Correlation Functionals <=

    1.0000   XC_MGGA_C_SCAN

   => LibXC Density Thresholds  <==

    XC_MGGA_C_SCAN:  1.00E-15 
    XC_MGGA_X_SCAN:  1.00E-15 

   => Molecular Quadrature <=

    Radial Scheme          =       TREUTLER
    Pruning Scheme         =           NONE
    Nuclear Scheme         =       TREUTLER

    BS radius alpha        =              1
    Pruning alpha          =              1
    Radial Points          =             75
    Spherical Points       =            302
    Total Points           =          43498
    Total Blocks           =            428
    Max Points             =            252
    Max Functions          =            129
    Weights Tolerance      =       1.00E-15


  -Total Gradient:
     Atom            X                  Y                   Z
    ------   -----------------  -----------------  -----------------
       1        0.000000000000     0.000000000000    -0.007686585003
       2        0.000000000000     0.000000000000     0.007686585003


*** tstop() called on compute415.bc4.acrc.priv at Tue Nov  2 11:00:22 2021
Module time:
	user time   =      40.46 seconds =       0.67 minutes
	system time =       1.57 seconds =       0.03 minutes
	total time  =          8 seconds =       0.13 minutes
Total time:
	user time   =     241.10 seconds =       4.02 minutes
	system time =      10.86 seconds =       0.18 minutes
	total time  =         30 seconds =       0.50 minutes

			-----------------------------------------
			 OPTKING 2.0: for geometry optimizations 
			  - R.A. King,  Bethel University        
			-----------------------------------------
	At level 1: Red. Int., RFO, no backsteps, dynamic trust

	Previous internal coordinate definitions found.
	---Fragment 1 Geometry and Gradient---
	 CU          0.0000000000        0.0000000000        1.9239637065
	 CU          0.0000000000        0.0000000000       -1.9239637065
	             0.0000000000        0.0000000000       -0.0076865850
	             0.0000000000        0.0000000000        0.0076865850

	---Fragment 1 Intrafragment Coordinates---
	 - Coordinate -           - BOHR/RAD -       - ANG/DEG -
	 R(1,2)           =         3.847927	       2.036235

	Current energy   :     -3281.4061302349

	Energy change for the previous step:
		Projected    :         0.0109654494
		Actual       :         0.0048383306

	Performing BFGS update.
	Previous computed or guess Hessian on step 1.
	Steps to be used in Hessian update: 2 1
	Taking RFO optimization step.
	Going to follow RFO solution 1.
	Using RFO vector 1.
	Norm of target step-size    0.06499
	Projected energy change by RFO approximation:         0.0016054969

	Back-transformation to cartesian coordinates...
	Successfully converged to displaced geometry.

	--- Internal Coordinate Step in ANG or DEG, aJ/ANG or AJ/DEG ---
	 ---------------------------------------------------------------------------
	   Coordinate                Previous        Force       Change         New 
	   ----------                --------       ------       ------       ------
	    1 R(1,2)          =      2.036235     0.063328     0.034391     2.070627
	 ---------------------------------------------------------------------------
	Successfully symmetrized geometry.

  ==> Convergence Check <==

  Measures of convergence in internal coordinates in au.
  Criteria marked as inactive (o), active & met (*), and active & unmet ( ).
  ---------------------------------------------------------------------------------------------
   Step     Total Energy     Delta E     MAX Force     RMS Force      MAX Disp      RMS Disp   
  ---------------------------------------------------------------------------------------------
    Convergence Criteria    1.00e-06 *    3.00e-04 *             o    1.20e-03 *             o
  ---------------------------------------------------------------------------------------------
      3   -3281.40613023    4.84e-03      7.69e-03      7.69e-03 o    6.50e-02      6.50e-02 o  ~
  ---------------------------------------------------------------------------------------------

	Writing optimization data to binary file.
	Structure for next step:
	Cartesian Geometry (in Angstrom)
	   CU     0.0000000000   0.0000000000   1.0353132603
	   CU     0.0000000000   0.0000000000  -1.0353132603
			--------------------------
			 OPTKING Finished Execution 
			--------------------------

    Structure for next step:
    Molecular point group: d2h
    Full point group: D_inf_h

    Geometry (in Angstrom), charge = 0, multiplicity = 1:

    CU           0.000000000000     0.000000000000     1.035313264393
    CU           0.000000000000     0.000000000000    -1.035313264393


Scratch directory: /tmp/
gradient() will perform analytic gradient computation.

*** tstart() called on compute415.bc4.acrc.priv
*** at Tue Nov  2 11:00:22 2021

   => Loading Basis Set <=

    Name: DEF2-TZVPPD
    Role: ORBITAL
    Keyword: BASIS
    atoms 1-2 entry CU         line  1290 file /mnt/storage/home/zw18965/.conda/envs/p4env/share/psi4/basis/def2-tzvppd.gbs 

   => SCAN-D3(BJ): Empirical Dispersion <=

    Grimme's -D3 (BJ-damping) Dispersion Correction
    Grimme S.; Ehrlich S.; Goerigk L. (2011), J. Comput. Chem., 32: 1456
    Parametrisation from:    J.G. Brandenburg, J. E. Bates, J. Sun, J.P. Perdew, Phys. Rev. B 94, 115144, 2016

        s6 =       1.000000
        s8 =       0.000000
        a1 =       0.538000
        a2 =       5.420000


         ---------------------------------------------------------
                                   SCF
               by Justin Turney, Rob Parrish, Andy Simmonett
                          and Daniel G. A. Smith
                              RKS Reference
                       28 Threads, 137329 MiB Core
         ---------------------------------------------------------

  ==> Geometry <==

    Molecular point group: d2h
    Full point group: D_inf_h

    Geometry (in Angstrom), charge = 0, multiplicity = 1:

       Center              X                  Y                   Z               Mass       
    ------------   -----------------  -----------------  -----------------  -----------------
         CU           0.000000000000     0.000000000000     1.035313264393    62.929597720000
         CU           0.000000000000     0.000000000000    -1.035313264393    62.929597720000

  Running in d2h symmetry.

  Rotational constants: A = ************  B =      0.12496  C =      0.12496 [cm^-1]
  Rotational constants: A = ************  B =   3746.18044  C =   3746.18044 [MHz]
  Nuclear repulsion =  214.929166600725949

  Charge       = 0
  Multiplicity = 1
  Electrons    = 58
  Nalpha       = 29
  Nbeta        = 29

  ==> Algorithm <==

  SCF Algorithm Type is DF.
  DIIS enabled.
  MOM disabled.
  Fractional occupation disabled.
  Guess Type is READ.
  Energy threshold   = 1.00e-08
  Density threshold  = 1.00e-08
  Integral threshold = 1.00e-12

  ==> Primary Basis <==

  Basis Set: DEF2-TZVPPD
    Blend: DEF2-TZVPPD
    Number of shells: 38
    Number of basis functions: 134
    Number of Cartesian functions: 166
    Spherical Harmonics?: true
    Max angular momentum: 4

  ==> DFT Potential <==

   => Composite Functional: SCAN-D3BJ <= 

    SCAN Meta-GGA XC Functional
(10.1103/PhysRevLett.115.036402)
    J. Sun, A. Ruzsinszky, J. P. Perdew  Phys. Rev. Lett. 115, 036402, 2015


    Deriv               =              1
    GGA                 =           TRUE
    Meta                =           TRUE

    Exchange Hybrid     =          FALSE
    MP2 Hybrid          =          FALSE

   => Exchange Functionals <=

    1.0000   XC_MGGA_X_SCAN

   => Correlation Functionals <=

    1.0000   XC_MGGA_C_SCAN

   => LibXC Density Thresholds  <==

    XC_MGGA_C_SCAN:  1.00E-15 
    XC_MGGA_X_SCAN:  1.00E-15 

   => Molecular Quadrature <=

    Radial Scheme          =       TREUTLER
    Pruning Scheme         =           NONE
    Nuclear Scheme         =       TREUTLER

    BS radius alpha        =              1
    Pruning alpha          =              1
    Radial Points          =             75
    Spherical Points       =            302
    Total Points           =          43502
    Total Blocks           =            428
    Max Points             =            252
    Max Functions          =            129
    Weights Tolerance      =       1.00E-15

   => Loading Basis Set <=

    Name: (DEF2-TZVPPD AUX)
    Role: JKFIT
    Keyword: DF_BASIS_SCF
    atoms 1-2 entry CU         line  2356 file /mnt/storage/home/zw18965/.conda/envs/p4env/share/psi4/basis/def2-universal-jkfit.gbs 

   => Loading Basis Set <=

    Name: DEF2-TZVPPD
    Role: ORBITAL
    Keyword: BASIS
    atoms 1-2 entry CU         line  1290 file /mnt/storage/home/zw18965/.conda/envs/p4env/share/psi4/basis/def2-tzvppd.gbs 

  Reading orbitals from file /tmp/Cu02N0.default.14012.180.npy, no projection.

  ==> Integral Setup <==

  DFHelper Memory: AOs need 0.079 GiB; user supplied 100.298 GiB. Using in-core AOs.

  ==> MemDFJK: Density-Fitted J/K Matrices <==

    J tasked:                   Yes
    K tasked:                    No
    wK tasked:                   No
    OpenMP threads:              28
    Memory [MiB]:            102705
    Algorithm:                 Core
    Schwarz Cutoff:           1E-12
    Mask sparsity (%):       3.4417
    Fitting Condition:        1E-10

   => Auxiliary Basis Set <=

  Basis Set: (DEF2-TZVPPD AUX)
    Blend: DEF2-UNIVERSAL-JKFIT
    Number of shells: 116
    Number of basis functions: 528
    Number of Cartesian functions: 754
    Spherical Harmonics?: true
    Max angular momentum: 6

  Cached 100.0% of DFT collocation blocks in 0.285 [GiB].

  Minimum eigenvalue in the overlap matrix is 1.4800733990E-03.
  Reciprocal condition number of the overlap matrix is 3.4185240136E-04.
    Using symmetric orthogonalization.

  ==> Pre-Iterations <==

  SCF Guess: Orbitals guess was supplied from a previous computation.

   -------------------------------------------------------
    Irrep   Nso     Nmo     Nalpha   Nbeta   Ndocc  Nsocc
   -------------------------------------------------------
     Ag        27      27       8       8       8       0
     B1g        8       8       1       1       1       0
     B2g       16      16       3       3       3       0
     B3g       16      16       3       3       3       0
     Au         8       8       1       1       1       0
     B1u       27      27       7       7       7       0
     B2u       16      16       3       3       3       0
     B3u       16      16       3       3       3       0
   -------------------------------------------------------
    Total     134     134      29      29      29       0
   -------------------------------------------------------

  ==> Iterations <==

                           Total Energy        Delta E     RMS |[F,P]|

   @DF-RKS iter   0: -3281.41684660135888   -3.28142e+03   2.46781e-03 
   @DF-RKS iter   1: -3281.40852401608481    8.32259e-03   9.49795e-05 DIIS
   @DF-RKS iter   2: -3281.40850092987330    2.30862e-05   2.57476e-04 DIIS
   @DF-RKS iter   3: -3281.40852616226675   -2.52324e-05   5.20207e-05 DIIS
   @DF-RKS iter   4: -3281.40852761720453   -1.45494e-06   5.30795e-06 DIIS
   @DF-RKS iter   5: -3281.40852763261682   -1.54123e-08   1.19637e-06 DIIS
   @DF-RKS iter   6: -3281.40852763380281   -1.18598e-09   1.65921e-07 DIIS
   @DF-RKS iter   7: -3281.40852763381736   -1.45519e-11   2.74794e-08 DIIS
   @DF-RKS iter   8: -3281.40852763381827   -9.09495e-13   1.32526e-08 DIIS
   @DF-RKS iter   9: -3281.40852763381781    4.54747e-13   6.42885e-10 DIIS
  Energy and wave function converged.


  ==> Post-Iterations <==

   Electrons on quadrature grid:
      Ntotal   =   58.0000191741 ; deviation = 1.917e-05 

    Orbital Energies [Eh]
    ---------------------

    Doubly Occupied:                                                      

       1B1u -322.372259     1Ag  -322.372249     2B1u  -38.627240  
       2Ag   -38.627210     3Ag   -33.809773     3B1u  -33.809772  
       1B2g  -33.808126     1B3g  -33.808126     1B3u  -33.808123  
       1B2u  -33.808123     4Ag    -4.250999     4B1u   -4.249497  
       5Ag    -2.728496     5B1u   -2.718338     2B3u   -2.716272  
       2B2u   -2.716272     2B2g   -2.715190     2B3g   -2.715190  
       6Ag    -0.253227     3B3u   -0.226888     3B2u   -0.226888  
       1B1g   -0.199847     7Ag    -0.199803     8Ag    -0.199025  
       1Au    -0.187344     6B1u   -0.187317     3B2g   -0.177892  
       3B3g   -0.177892     7B1u   -0.175724  

    Virtual:                                                              

       8B1u   -0.099321     4B2u   -0.035970     4B3u   -0.035970  
       9Ag    -0.004023     4B3g    0.047809     4B2g    0.047809  
       9B1u    0.055151    10Ag     0.114398     5B3u    0.121411  
       5B2u    0.121411    11Ag     0.122963     5B3g    0.171199  
       5B2g    0.171199    12Ag     0.178307     2B1g    0.178308  
      10B1u    0.197688    11B1u    0.229537     6B3u    0.239970  
       6B2u    0.239970     2Au     0.260324    12B1u    0.260324  
      13Ag     0.326454     6B2g    0.353439     6B3g    0.353439  
      13B1u    0.528834    14Ag     0.644598     7B3u    0.646964  
       7B2u    0.646964     7B3g    0.751652     7B2g    0.751652  
      14B1u    0.782870     8B3u    0.841281     8B2u    0.841281  
       3B1g    0.861324    15Ag     0.861491    15B1u    0.959242  
       3Au     0.959289    16Ag     0.991576     8B2g    1.114037  
       8B3g    1.114037    16B1u    1.359645    17Ag     2.937559  
       9B2u    2.988127     9B3u    2.988127    17B1u    3.033063  
       9B3g    3.075093     9B2g    3.075093    18Ag     3.196054  
      19Ag     3.319313    10B3u    3.379296    10B2u    3.379296  
       4B1g    3.417888    20Ag     3.418011    18B1u    3.437798  
      11B2u    3.444078    11B3u    3.444078    10B3g    3.445965  
      10B2g    3.445965     4Au     3.452914    19B1u    3.453098  
      11B3g    3.508222    11B2g    3.508222     5B1g    3.661580  
      21Ag     3.661789    20B1u    3.699139     5Au     3.705724  
      21B1u    3.705818    12B3u    3.744852    12B2u    3.744852  
      12B2g    3.815237    12B3g    3.815237    22Ag     4.038427  
      22B1u    4.142116    23Ag    13.142692    13B3u   13.145525  
      13B2u   13.145525    23B1u   13.146192    13B2g   13.146727  
      13B3g   13.146727     6B1g   13.147306     6Au    13.147443  
      24Ag    13.148347    24B1u   13.148517    14B2u   13.150911  
      14B3u   13.150911    14B3g   13.150938    14B2g   13.150938  
      25Ag    13.154494    25B1u   13.154497     7B1g   13.154999  
       7Au    13.154999    26Ag    13.185011    15B2u   13.205799  
      15B3u   13.205799     8B1g   13.221873    27Ag    13.222385  
      16B3u   13.229866    16B2u   13.229866    15B2g   13.230532  
      15B3g   13.230532     8Au    13.233038    26B1u   13.233518  
      16B3g   13.286601    16B2g   13.286601    27B1u   13.475574  

    Final Occupation by Irrep:
             Ag   B1g   B2g   B3g    Au   B1u   B2u   B3u 
    DOCC [     8,    1,    3,    3,    1,    7,    3,    3 ]

  @DF-RKS Final Energy: -3281.40852763381781

   => Energetics <=

    Nuclear Repulsion Energy =            214.9291666007259494
    One-Electron Energy =               -5005.5415869426024074
    Two-Electron Energy =                1644.0309531007867463
    DFT Exchange-Correlation Energy =    -134.8269113527278193
    Empirical Dispersion Energy =          -0.0001490400000000
    VV10 Nonlocal Energy =                  0.0000000000000000
    Total Energy =                      -3281.4085276338173571

Computation Completed


Properties will be evaluated at   0.000000,   0.000000,   0.000000 [a0]

Properties computed using the SCF density matrix

  Nuclear Dipole Moment: [e a0]
     X:     0.0000      Y:     0.0000      Z:     0.0000

  Electronic Dipole Moment: [e a0]
     X:     0.0000      Y:     0.0000      Z:     0.0000

  Dipole Moment: [e a0]
     X:     0.0000      Y:     0.0000      Z:     0.0000     Total:     0.0000

  Dipole Moment: [D]
     X:     0.0000      Y:     0.0000      Z:     0.0000     Total:     0.0000


*** tstop() called on compute415.bc4.acrc.priv at Tue Nov  2 11:00:23 2021
Module time:
	user time   =      28.22 seconds =       0.47 minutes
	system time =       0.93 seconds =       0.02 minutes
	total time  =          1 seconds =       0.02 minutes
Total time:
	user time   =     269.81 seconds =       4.50 minutes
	system time =      11.80 seconds =       0.20 minutes
	total time  =         31 seconds =       0.52 minutes

*** tstart() called on compute415.bc4.acrc.priv
*** at Tue Nov  2 11:00:23 2021


         ------------------------------------------------------------
                                   SCF GRAD                          
                          Rob Parrish, Justin Turney,                
                       Andy Simmonett, and Alex Sokolov              
         ------------------------------------------------------------

  ==> Geometry <==

    Molecular point group: d2h
    Full point group: D_inf_h

    Geometry (in Angstrom), charge = 0, multiplicity = 1:

       Center              X                  Y                   Z               Mass       
    ------------   -----------------  -----------------  -----------------  -----------------
         CU           0.000000000000     0.000000000000     1.035313264393    62.929597720000
         CU           0.000000000000     0.000000000000    -1.035313264393    62.929597720000

  Nuclear repulsion =  214.929166600725949

  ==> Basis Set <==

  Basis Set: DEF2-TZVPPD
    Blend: DEF2-TZVPPD
    Number of shells: 38
    Number of basis functions: 134
    Number of Cartesian functions: 166
    Spherical Harmonics?: true
    Max angular momentum: 4

  ==> DFJKGrad: Density-Fitted SCF Gradients <==

    Gradient:                    1
    J tasked:                  Yes
    K tasked:                   No
    wK tasked:                  No
    OpenMP threads:             28
    Integrals threads:          28
    Memory [MiB]:           102996
    Schwarz Cutoff:          1E-12
    Fitting Condition:       1E-10

   => Auxiliary Basis Set <=

  Basis Set: (DEF2-TZVPPD AUX)
    Blend: DEF2-UNIVERSAL-JKFIT
    Number of shells: 116
    Number of basis functions: 528
    Number of Cartesian functions: 754
    Spherical Harmonics?: true
    Max angular momentum: 6

  ==> DFT Potential <==

   => Composite Functional: SCAN-D3BJ <= 

    SCAN Meta-GGA XC Functional
(10.1103/PhysRevLett.115.036402)
    J. Sun, A. Ruzsinszky, J. P. Perdew  Phys. Rev. Lett. 115, 036402, 2015


    Deriv               =              1
    GGA                 =           TRUE
    Meta                =           TRUE

    Exchange Hybrid     =          FALSE
    MP2 Hybrid          =          FALSE

   => Exchange Functionals <=

    1.0000   XC_MGGA_X_SCAN

   => Correlation Functionals <=

    1.0000   XC_MGGA_C_SCAN

   => LibXC Density Thresholds  <==

    XC_MGGA_C_SCAN:  1.00E-15 
    XC_MGGA_X_SCAN:  1.00E-15 

   => Molecular Quadrature <=

    Radial Scheme          =       TREUTLER
    Pruning Scheme         =           NONE
    Nuclear Scheme         =       TREUTLER

    BS radius alpha        =              1
    Pruning alpha          =              1
    Radial Points          =             75
    Spherical Points       =            302
    Total Points           =          43502
    Total Blocks           =            428
    Max Points             =            252
    Max Functions          =            129
    Weights Tolerance      =       1.00E-15


  -Total Gradient:
     Atom            X                  Y                   Z
    ------   -----------------  -----------------  -----------------
       1        0.000000000000     0.000000000000     0.002845041305
       2        0.000000000000    -0.000000000000    -0.002845041305


*** tstop() called on compute415.bc4.acrc.priv at Tue Nov  2 11:00:30 2021
Module time:
	user time   =      41.18 seconds =       0.69 minutes
	system time =       1.36 seconds =       0.02 minutes
	total time  =          7 seconds =       0.12 minutes
Total time:
	user time   =     314.13 seconds =       5.24 minutes
	system time =      13.31 seconds =       0.22 minutes
	total time  =         38 seconds =       0.63 minutes

			-----------------------------------------
			 OPTKING 2.0: for geometry optimizations 
			  - R.A. King,  Bethel University        
			-----------------------------------------
	At level 1: Red. Int., RFO, no backsteps, dynamic trust

	Previous internal coordinate definitions found.
	---Fragment 1 Geometry and Gradient---
	 CU          0.0000000000        0.0000000000        1.9564585238
	 CU          0.0000000000        0.0000000000       -1.9564585238
	             0.0000000000        0.0000000000        0.0028450413
	             0.0000000000       -0.0000000000       -0.0028450413

	---Fragment 1 Intrafragment Coordinates---
	 - Coordinate -           - BOHR/RAD -       - ANG/DEG -
	 R(1,2)           =         3.912917	       2.070627

	Current energy   :     -3281.4085276338

	Energy change for the previous step:
		Projected    :         0.0016054969
		Actual       :        -0.0023973989

	Performing BFGS update.
	Previous computed or guess Hessian on step 1.
	Steps to be used in Hessian update: 3 2
	Taking RFO optimization step.
	Going to follow RFO solution 1.
	Using RFO vector 1.
	Norm of target step-size    0.02190
	Projected energy change by RFO approximation:         0.0001773982

	Back-transformation to cartesian coordinates...
	Successfully converged to displaced geometry.

	--- Internal Coordinate Step in ANG or DEG, aJ/ANG or AJ/DEG ---
	 ---------------------------------------------------------------------------
	   Coordinate                Previous        Force       Change         New 
	   ----------                --------       ------       ------       ------
	    1 R(1,2)          =      2.070627    -0.023440    -0.011589     2.059038
	 ---------------------------------------------------------------------------
	Successfully symmetrized geometry.

  ==> Convergence Check <==

  Measures of convergence in internal coordinates in au.
  Criteria marked as inactive (o), active & met (*), and active & unmet ( ).
  ---------------------------------------------------------------------------------------------
   Step     Total Energy     Delta E     MAX Force     RMS Force      MAX Disp      RMS Disp   
  ---------------------------------------------------------------------------------------------
    Convergence Criteria    1.00e-06 *    3.00e-04 *             o    1.20e-03 *             o
  ---------------------------------------------------------------------------------------------
      4   -3281.40852763   -2.40e-03      2.85e-03      2.85e-03 o    2.19e-02      2.19e-02 o  ~
  ---------------------------------------------------------------------------------------------

	Writing optimization data to binary file.
	Structure for next step:
	Cartesian Geometry (in Angstrom)
	   CU     0.0000000000   0.0000000000   1.0295189831
	   CU     0.0000000000   0.0000000000  -1.0295189831
			--------------------------
			 OPTKING Finished Execution 
			--------------------------

    Structure for next step:
    Molecular point group: d2h
    Full point group: D_inf_h

    Geometry (in Angstrom), charge = 0, multiplicity = 1:

    CU           0.000000000000     0.000000000000     1.029518987169
    CU           0.000000000000     0.000000000000    -1.029518987169


Scratch directory: /tmp/
gradient() will perform analytic gradient computation.

*** tstart() called on compute415.bc4.acrc.priv
*** at Tue Nov  2 11:00:30 2021

   => Loading Basis Set <=

    Name: DEF2-TZVPPD
    Role: ORBITAL
    Keyword: BASIS
    atoms 1-2 entry CU         line  1290 file /mnt/storage/home/zw18965/.conda/envs/p4env/share/psi4/basis/def2-tzvppd.gbs 

   => SCAN-D3(BJ): Empirical Dispersion <=

    Grimme's -D3 (BJ-damping) Dispersion Correction
    Grimme S.; Ehrlich S.; Goerigk L. (2011), J. Comput. Chem., 32: 1456
    Parametrisation from:    J.G. Brandenburg, J. E. Bates, J. Sun, J.P. Perdew, Phys. Rev. B 94, 115144, 2016

        s6 =       1.000000
        s8 =       0.000000
        a1 =       0.538000
        a2 =       5.420000


         ---------------------------------------------------------
                                   SCF
               by Justin Turney, Rob Parrish, Andy Simmonett
                          and Daniel G. A. Smith
                              RKS Reference
                       28 Threads, 137329 MiB Core
         ---------------------------------------------------------

  ==> Geometry <==

    Molecular point group: d2h
    Full point group: D_inf_h

    Geometry (in Angstrom), charge = 0, multiplicity = 1:

       Center              X                  Y                   Z               Mass       
    ------------   -----------------  -----------------  -----------------  -----------------
         CU           0.000000000000     0.000000000000     1.029518987169    62.929597720000
[...]

   => LibXC Density Thresholds  <==

    XC_MGGA_C_SCAN:  1.00E-15 
    XC_MGGA_X_SCAN:  1.00E-15 

   => Molecular Quadrature <=

    Radial Scheme          =       TREUTLER
    Pruning Scheme         =           NONE
    Nuclear Scheme         =       TREUTLER

    BS radius alpha        =              1
    Pruning alpha          =              1
    Radial Points          =             75
    Spherical Points       =            302
    Total Points           =          43498
    Total Blocks           =            428
    Max Points             =            252
    Max Functions          =            129
    Weights Tolerance      =       1.00E-15

   => Loading Basis Set <=

    Name: (DEF2-TZVPPD AUX)
    Role: JKFIT
    Keyword: DF_BASIS_SCF
    atoms 1-2 entry CU         line  2356 file /mnt/storage/home/zw18965/.conda/envs/p4env/share/psi4/basis/def2-universal-jkfit.gbs 

  ==> Integral Setup <==

  DFHelper Memory: AOs need 0.079 GiB; user supplied 100.298 GiB. Using in-core AOs.

  ==> MemDFJK: Density-Fitted J/K Matrices <==

    J tasked:                   Yes
    K tasked:                    No
    wK tasked:                   No
    OpenMP threads:              28
    Memory [MiB]:            102704
    Algorithm:                 Core
    Schwarz Cutoff:           1E-12
    Mask sparsity (%):       3.3972
    Fitting Condition:        1E-10

   => Auxiliary Basis Set <=

  Basis Set: (DEF2-TZVPPD AUX)
    Blend: DEF2-UNIVERSAL-JKFIT
    Number of shells: 116
    Number of basis functions: 528
    Number of Cartesian functions: 754
    Spherical Harmonics?: true
    Max angular momentum: 6

  Cached 100.0% of DFT collocation blocks in 0.285 [GiB].

  Minimum eigenvalue in the overlap matrix is 1.4600215259E-03.
  Reciprocal condition number of the overlap matrix is 3.3661858899E-04.
    Using symmetric orthogonalization.

  ==> Pre-Iterations <==

  SCF Guess: Superposition of Atomic Densities via on-the-fly atomic UHF (no occupation information).

   -------------------------
    Irrep   Nso     Nmo    
   -------------------------
     Ag        27      27 
     B1g        8       8 
     B2g       16      16 
     B3g       16      16 
     Au         8       8 
     B1u       27      27 
     B2u       16      16 
     B3u       16      16 
   -------------------------
    Total     134     134
   -------------------------

  ==> Iterations <==

                           Total Energy        Delta E     RMS |[F,P]|

   @DF-RKS iter SAD: -3277.34463933288407   -3.27734e+03   0.00000e+00 
    Occupation by irrep:
             Ag   B1g   B2g   B3g    Au   B1u   B2u   B3u 
    DOCC [     8,    0,    3,    3,    0,    7,    4,    4 ]

   @DF-RKS iter   1: -3275.09533367379390    2.24931e+00   1.21083e-01 DIIS
    Occupation by irrep:
             Ag   B1g   B2g   B3g    Au   B1u   B2u   B3u 
    DOCC [     8,    1,    3,    3,    1,    7,    3,    3 ]

   @DF-RKS iter   2: -3190.49276089194382    8.46026e+01   2.58240e-01 DIIS
    Occupation by irrep:
             Ag   B1g   B2g   B3g    Au   B1u   B2u   B3u 
    DOCC [     7,    1,    3,    3,    0,    7,    4,    4 ]

   @DF-RKS iter   3: -3279.61122743933083   -8.91185e+01   5.23276e-02 DIIS
    Occupation by irrep:
             Ag   B1g   B2g   B3g    Au   B1u   B2u   B3u 
    DOCC [     8,    1,    3,    3,    1,    7,    3,    3 ]

   @DF-RKS iter   4: -3237.89228554020701    4.17189e+01   1.97345e-01 DIIS
   @DF-RKS iter   5: -3278.90780890662063   -4.10155e+01   6.32214e-02 DIIS
   @DF-RKS iter   6: -3281.20747275960093   -2.29966e+00   1.98137e-02 DIIS
   @DF-RKS iter   7: -3281.38947968190769   -1.82007e-01   5.20704e-03 DIIS
   @DF-RKS iter   8: -3281.39998926095268   -1.05096e-02   4.06780e-03 DIIS
   @DF-RKS iter   9: -3281.40769760512921   -7.70834e-03   7.28282e-04 DIIS
   @DF-RKS iter  10: -3281.40795285255172   -2.55247e-04   8.46038e-05 DIIS
   @DF-RKS iter  11: -3281.40795740995964   -4.55741e-06   3.30496e-06 DIIS
   @DF-RKS iter  12: -3281.40795742404771   -1.40881e-08   1.42394e-06 DIIS
   @DF-RKS iter  13: -3281.40795742534874   -1.30103e-09   3.47653e-07 DIIS
   @DF-RKS iter  14: -3281.40795742542105   -7.23048e-11   3.25533e-08 DIIS
   @DF-RKS iter  15: -3281.40795742542196   -9.09495e-13   5.74357e-09 DIIS
  Energy and wave function converged.


  ==> Post-Iterations <==

   Electrons on quadrature grid:
      Ntotal   =   58.0000197087 ; deviation = 1.971e-05 

    Orbital Energies [Eh]
    ---------------------

    Doubly Occupied:                                                      

       1B1u -322.372450     1Ag  -322.372440     2B1u  -38.627493  
       2Ag   -38.627462     3Ag   -33.810037     3B1u  -33.810036  
       1B3g  -33.808364     1B2g  -33.808364     1B2u  -33.808360  
       1B3u  -33.808360     4Ag    -4.251325     4B1u   -4.249741  
       5Ag    -2.729116     5B1u   -2.718520     2B2u   -2.716530  
       2B3u   -2.716530     2B3g   -2.715397     2B2g   -2.715397  
       6Ag    -0.254092     3B2u   -0.227758     3B3u   -0.227758  
       1B1g   -0.200190     7Ag    -0.200148     8Ag    -0.199424  
       1Au    -0.187409     6B1u   -0.187385     3B3g   -0.177778  
       3B2g   -0.177778     7B1u   -0.175556  

    Virtual:                                                              

       8B1u   -0.099063     4B2u   -0.036094     4B3u   -0.036094  
       9Ag    -0.003718     4B2g    0.048071     4B3g    0.048071  
       9B1u    0.055173    10Ag     0.114525     5B3u    0.121324  
       5B2u    0.121324    11Ag     0.122998     5B3g    0.171410  
       5B2g    0.171410    12Ag     0.178365     2B1g    0.178366  
      10B1u    0.197938    11B1u    0.230018     6B3u    0.240323  
       6B2u    0.240323     2Au     0.260602    12B1u    0.260602  
      13Ag     0.326587     6B2g    0.353915     6B3g    0.353915  
      13B1u    0.530278    14Ag     0.645325     7B2u    0.646223  
       7B3u    0.646223     7B3g    0.752484     7B2g    0.752484  
      14B1u    0.783812     8B2u    0.842462     8B3u    0.842462  
       3B1g    0.860629    15Ag     0.860810    15B1u    0.959846  
       3Au     0.959889    16Ag     0.993075     8B3g    1.115110  
       8B2g    1.115110    16B1u    1.362653    17Ag     2.938374  
       9B2u    2.988688     9B3u    2.988688    17B1u    3.034164  
       9B3g    3.075284     9B2g    3.075284    18Ag     3.199565  
      19Ag     3.309969    10B3u    3.376679    10B2u    3.376679  
       4B1g    3.416648    20Ag     3.416765    18B1u    3.439931  
      11B3u    3.443893    11B2u    3.443893    10B2g    3.445922  
      10B3g    3.445922     4Au     3.453481    19B1u    3.453654  
      11B2g    3.512431    11B3g    3.512431     5B1g    3.661775  
      21Ag     3.661975     5Au     3.705858    20B1u    3.705951  
      21B1u    3.706536    12B3u    3.744854    12B2u    3.744854  
      12B3g    3.816106    12B2g    3.816106    22Ag     4.039500  
      22B1u    4.143647    23Ag    13.141843    13B2u   13.145094  
      13B3u   13.145094    23B1u   13.145712    13B3g   13.146342  
      13B2g   13.146342     6B1g   13.147007     6Au    13.147155  
      24Ag    13.148056    24B1u   13.148240    14B2u   13.150660  
      14B3u   13.150660    14B3g   13.150688    14B2g   13.150688  
      25Ag    13.154286    25B1u   13.154289     7B1g   13.154814  
       7Au    13.154814    26Ag    13.182905    15B2u   13.204031  
      15B3u   13.204031     8B1g   13.221260    27Ag    13.221784  
      16B2u   13.229617    16B3u   13.229617    15B3g   13.230335  
      15B2g   13.230335     8Au    13.233181    26B1u   13.233668  
      16B3g   13.289251    16B2g   13.289251    27B1u   13.482232  

    Final Occupation by Irrep:
             Ag   B1g   B2g   B3g    Au   B1u   B2u   B3u 
    DOCC [     8,    1,    3,    3,    1,    7,    3,    3 ]

  @DF-RKS Final Energy: -3281.40795742542196

   => Energetics <=

    Nuclear Repulsion Energy =            215.8921097349830802
    One-Electron Energy =               -5007.4492141927366902
    Two-Electron Energy =                1644.9779091452605826
    DFT Exchange-Correlation Energy =    -134.8286130729291301
    Empirical Dispersion Energy =          -0.0001490400000000
    VV10 Nonlocal Energy =                  0.0000000000000000
    Total Energy =                      -3281.4079574254224099

Computation Completed


Properties will be evaluated at   0.000000,   0.000000,   0.000000 [a0]

Properties computed using the SCF density matrix

  Nuclear Dipole Moment: [e a0]
     X:     0.0000      Y:    -0.0000      Z:     0.0000

  Electronic Dipole Moment: [e a0]
     X:     0.0000      Y:     0.0000      Z:     0.0000

  Dipole Moment: [e a0]
     X:     0.0000      Y:    -0.0000      Z:     0.0000     Total:     0.0000

  Dipole Moment: [D]
     X:     0.0000      Y:    -0.0000      Z:     0.0000     Total:     0.0000


*** tstop() called on compute415.bc4.acrc.priv at Tue Nov  2 11:03:27 2021
Module time:
	user time   =      43.69 seconds =       0.73 minutes
	system time =       1.12 seconds =       0.02 minutes
	total time  =          2 seconds =       0.03 minutes
Total time:
	user time   =    1835.18 seconds =      30.59 minutes
	system time =      64.72 seconds =       1.08 minutes
	total time  =        215 seconds =       3.58 minutes

*** tstart() called on compute415.bc4.acrc.priv
*** at Tue Nov  2 11:03:27 2021


         ------------------------------------------------------------
                                   SCF GRAD                          
                          Rob Parrish, Justin Turney,                
                       Andy Simmonett, and Alex Sokolov              
         ------------------------------------------------------------

  ==> Geometry <==

    Molecular point group: d2h
    Full point group: D_inf_h

    Geometry (in Angstrom), charge = 0, multiplicity = 1:

       Center              X                  Y                   Z               Mass       
    ------------   -----------------  -----------------  -----------------  -----------------
         CU           0.000000000000     0.000000000000     1.030695458764    62.929597720000
         CU           0.000000000000    -0.000000000000    -1.030695458764    62.929597720000

  Nuclear repulsion =  215.892109734983080

  ==> Basis Set <==

  Basis Set: DEF2-TZVPPD
    Blend: DEF2-TZVPPD
    Number of shells: 38
    Number of basis functions: 134
    Number of Cartesian functions: 166
    Spherical Harmonics?: true
    Max angular momentum: 4

  ==> DFJKGrad: Density-Fitted SCF Gradients <==

    Gradient:                    1
    J tasked:                  Yes
    K tasked:                   No
    wK tasked:                  No
    OpenMP threads:             28
    Integrals threads:          28
    Memory [MiB]:           102996
    Schwarz Cutoff:          1E-12
    Fitting Condition:       1E-10

   => Auxiliary Basis Set <=

  Basis Set: (DEF2-TZVPPD AUX)
    Blend: DEF2-UNIVERSAL-JKFIT
    Number of shells: 116
    Number of basis functions: 528
    Number of Cartesian functions: 754
    Spherical Harmonics?: true
    Max angular momentum: 6

  ==> DFT Potential <==

   => Composite Functional: SCAN-D3BJ <= 

    SCAN Meta-GGA XC Functional
(10.1103/PhysRevLett.115.036402)
    J. Sun, A. Ruzsinszky, J. P. Perdew  Phys. Rev. Lett. 115, 036402, 2015


    Deriv               =              1
    GGA                 =           TRUE
    Meta                =           TRUE

    Exchange Hybrid     =          FALSE
    MP2 Hybrid          =          FALSE

   => Exchange Functionals <=

    1.0000   XC_MGGA_X_SCAN

   => Correlation Functionals <=

    1.0000   XC_MGGA_C_SCAN

   => LibXC Density Thresholds  <==

    XC_MGGA_C_SCAN:  1.00E-15 
    XC_MGGA_X_SCAN:  1.00E-15 

   => Molecular Quadrature <=

    Radial Scheme          =       TREUTLER
    Pruning Scheme         =           NONE
    Nuclear Scheme         =       TREUTLER

    BS radius alpha        =              1
    Pruning alpha          =              1
    Radial Points          =             75
    Spherical Points       =            302
    Total Points           =          43498
    Total Blocks           =            428
    Max Points             =            252
    Max Functions          =            129
    Weights Tolerance      =       1.00E-15


  -Total Gradient:
     Atom            X                  Y                   Z
    ------   -----------------  -----------------  -----------------
       1        0.000000000000     0.000000000000     0.000232766887
       2        0.000000000000     0.000000000000    -0.000232766887


*** tstop() called on compute415.bc4.acrc.priv at Tue Nov  2 11:03:35 2021
Module time:
	user time   =      43.25 seconds =       0.72 minutes
	system time =       1.49 seconds =       0.02 minutes
	total time  =          8 seconds =       0.13 minutes
Total time:
	user time   =    1881.66 seconds =      31.36 minutes
	system time =      66.36 seconds =       1.11 minutes
	total time  =        223 seconds =       3.72 minutes

         ----------------------------------------------------------
                                   FINDIF
                     R. A. King and Jonathon Misiewicz
         ---------------------------------------------------------

  Computing second-derivative from gradients using projected, 
  symmetry-adapted, cartesian coordinates.

  3 gradients passed in, including the reference geometry.
  Generating complete list of displacements from unique ones.


-------------------------------------------------------------


  ==> Harmonic Vibrational Analysis <==

  non-mass-weighted Hessian:       Symmetric? True   Hermitian? True   Lin Dep Dim?  5 (0)
  projection of translations (True) and rotations (True) removed 5 degrees of freedom (5)
  total projector:                 Symmetric? True   Hermitian? True   Lin Dep Dim?  5 (5)
  mass-weighted Hessian:           Symmetric? True   Hermitian? True   Lin Dep Dim?  5 (0)
  pre-proj  low-frequency mode:    0.0000  [cm^-1]
  pre-proj  low-frequency mode:    0.0000  [cm^-1]
  pre-proj  low-frequency mode:    0.0000  [cm^-1]
  pre-proj  low-frequency mode:    0.0000  [cm^-1]
  pre-proj  low-frequency mode:    0.0000  [cm^-1]
  pre-proj  all modes:['0.0000' '0.0000' '0.0000' '0.0000' '0.0000' '360.3520']
  projected mass-weighted Hessian: Symmetric? True   Hermitian? True   Lin Dep Dim?  5 (5)
  post-proj low-frequency mode:    0.0000  [cm^-1] (TR)
  post-proj low-frequency mode:    0.0000  [cm^-1] (TR)
  post-proj low-frequency mode:    0.0000  [cm^-1] (TR)
  post-proj low-frequency mode:    0.0000  [cm^-1] (TR)
  post-proj low-frequency mode:    0.0000  [cm^-1] (TR)
  post-proj  all modes:['0.0000' '0.0000' '0.0000' '0.0000' '0.0000' '360.3520']

  Vibration                       6           
  Freq [cm^-1]                 360.3520       
  Irrep                           Ag          
  Reduced mass [u]             62.9296        
  Force const [mDyne/A]         4.8146        
  Turning point v=0 [a0]        0.0729        
  RMS dev v=0 [a0 u^1/2]        0.4087        
  Char temp [K]                518.4663       
  ----------------------------------------------------------------------------------
      1   CU               0.00  0.00  0.71   
      2   CU               0.00  0.00 -0.71   

  ==> Thermochemistry Components <==

  Entropy, S
    Electronic S            0.000 [cal/(mol K)]        0.000 [J/(mol K)]       0.00000000 [mEh/K] (multiplicity = 1)
    Translational S        40.404 [cal/(mol K)]      169.048 [J/(mol K)]       0.06438717 [mEh/K] (mol. weight = 125.8592 [u], P = 101325.00 [Pa])
    Rotational S           15.323 [cal/(mol K)]       64.113 [J/(mol K)]       0.02441936 [mEh/K] (symmetry no. = 2)
    Vibrational S           1.121 [cal/(mol K)]        4.689 [J/(mol K)]       0.00178576 [mEh/K]
  Total S                  56.848 [cal/(mol K)]      237.850 [J/(mol K)]       0.09059229 [mEh/K]
  Correction S              0.000 [cal/(mol K)]        0.000 [J/(mol K)]       0.00000000 [mEh/K]

  Constant volume heat capacity, Cv
    Electronic Cv           0.000 [cal/(mol K)]        0.000 [J/(mol K)]       0.00000000 [mEh/K]
    Translational Cv        2.981 [cal/(mol K)]       12.472 [J/(mol K)]       0.00475022 [mEh/K]
    Rotational Cv           1.987 [cal/(mol K)]        8.314 [J/(mol K)]       0.00316681 [mEh/K]
    Vibrational Cv          1.554 [cal/(mol K)]        6.502 [J/(mol K)]       0.00247637 [mEh/K]
  Total Cv                  6.522 [cal/(mol K)]       27.288 [J/(mol K)]       0.01039339 [mEh/K]
  Correction Cv             0.000 [cal/(mol K)]        0.000 [J/(mol K)]       0.00000000 [mEh/K]

  Constant pressure heat capacity, Cp
    Electronic Cp           0.000 [cal/(mol K)]        0.000 [J/(mol K)]       0.00000000 [mEh/K]
    Translational Cp        4.968 [cal/(mol K)]       20.786 [J/(mol K)]       0.00791703 [mEh/K]
    Rotational Cp           1.987 [cal/(mol K)]        8.314 [J/(mol K)]       0.00316681 [mEh/K]
    Vibrational Cp          1.554 [cal/(mol K)]        6.502 [J/(mol K)]       0.00247637 [mEh/K]
  Total Cp                  8.509 [cal/(mol K)]       35.602 [J/(mol K)]       0.01356020 [mEh/K]
  Correction Cp             0.000 [cal/(mol K)]        0.000 [J/(mol K)]       0.00000000 [mEh/K]

  ==> Thermochemistry Energy Analysis <==

  Raw electronic energy, E0
  Total E0, Electronic energy at well bottom at 0 [K]                -3281.40792695 [Eh]

  Zero-point energy, ZPE_vib = Sum_i nu_i / 2
    Electronic ZPE          0.000 [kcal/mol]        0.000 [kJ/mol]       0.00000000 [Eh]
    Translational ZPE       0.000 [kcal/mol]        0.000 [kJ/mol]       0.00000000 [Eh]
    Rotational ZPE          0.000 [kcal/mol]        0.000 [kJ/mol]       0.00000000 [Eh]
    Vibrational ZPE         0.515 [kcal/mol]        2.155 [kJ/mol]       0.00082094 [Eh]         180.176 [cm^-1]
  Correction ZPE            0.515 [kcal/mol]        2.155 [kJ/mol]       0.00082094 [Eh]         180.176 [cm^-1]
  Total ZPE, Electronic energy at 0 [K]                              -3281.40710601 [Eh]

  Thermal Energy, E (includes ZPE)
    Electronic E            0.000 [kcal/mol]        0.000 [kJ/mol]       0.00000000 [Eh]
    Translational E         0.889 [kcal/mol]        3.718 [kJ/mol]       0.00141628 [Eh]
    Rotational E            0.592 [kcal/mol]        2.479 [kJ/mol]       0.00094418 [Eh]
    Vibrational E           0.735 [kcal/mol]        3.074 [kJ/mol]       0.00117092 [Eh]
  Correction E              2.216 [kcal/mol]        9.272 [kJ/mol]       0.00353139 [Eh]
  Total E, Electronic energy at  298.15 [K]                          -3281.40439556 [Eh]

  Enthalpy, H_trans = E_trans + k_B * T
    Electronic H            0.000 [kcal/mol]        0.000 [kJ/mol]       0.00000000 [Eh]
    Translational H         1.481 [kcal/mol]        6.197 [kJ/mol]       0.00236046 [Eh]
    Rotational H            0.592 [kcal/mol]        2.479 [kJ/mol]       0.00094418 [Eh]
    Vibrational H           0.735 [kcal/mol]        3.074 [kJ/mol]       0.00117092 [Eh]
  Correction H              2.808 [kcal/mol]       11.751 [kJ/mol]       0.00447557 [Eh]
  Total H, Enthalpy at  298.15 [K]                                   -3281.40345138 [Eh]

  Gibbs free energy, G = H - T * S
    Electronic G            0.000 [kcal/mol]        0.000 [kJ/mol]       0.00000000 [Eh]
    Translational G       -10.565 [kcal/mol]      -44.204 [kJ/mol]      -0.01683657 [Eh]
    Rotational G           -3.976 [kcal/mol]      -16.636 [kJ/mol]      -0.00633645 [Eh]
    Vibrational G           0.401 [kcal/mol]        1.676 [kJ/mol]       0.00063850 [Eh]
  Correction G            -14.141 [kcal/mol]      -59.164 [kJ/mol]      -0.02253452 [Eh]
  Total G, Free enthalpy at  298.15 [K]                              -3281.43046147 [Eh]

    Psi4 stopped on: Tuesday, 02 November 2021 11:03AM
    Psi4 wall time for execution: 0:03:43.43

*** Psi4 exiting successfully. Buy a developer a beer!
