
                                 *****************
                                 * O   R   C   A *
                                 *****************

           --- An Ab Initio, DFT and Semiempirical electronic structure package ---

                  #######################################################
                  #                        -***-                        #
                  #          Department of theory and spectroscopy      #
                  #               Directorship: Frank Neese             #
                  #        Max Planck Institute fuer Kohlenforschung    #
                  #                Kaiser Wilhelm Platz 1               #
                  #                 D-45470 Muelheim/Ruhr               #
                  #                      Germany                        #
                  #                                                     #
                  #                  All rights reserved                #
                  #                        -***-                        #
                  #######################################################


                         Program Version 4.2.0 -  RELEASE  -


 With contributions from (in alphabetic order):
   Daniel Aravena         : Magnetic Suceptibility
   Michael Atanasov       : Ab Initio Ligand Field Theory (pilot matlab implementation)
   Alexander A. Auer      : GIAO ZORA, VPT2
   Ute Becker             : Parallelization
   Giovanni Bistoni       : ED, misc. LED, open-shell LED, HFLED
   Martin Brehm           : Molecular dynamics
   Dmytro Bykov           : SCF Hessian
   Vijay G. Chilkuri      : MRCI spin determinant printing, contributions to CSF-ICE
   Dipayan Datta          : RHF DLPNO-CCSD density
   Achintya Kumar Dutta   : EOM-CC, STEOM-CC
   Dmitry Ganyushin       : Spin-Orbit,Spin-Spin,Magnetic field MRCI
   Miquel Garcia          : C-PCM Hessian, Gaussian charge scheme
   Yang Guo               : DLPNO-NEVPT2, CIM, IAO-localization
   Andreas Hansen         : Spin unrestricted coupled pair/coupled cluster methods
   Benjamin Helmich-Paris : CASSCF linear response (MC-RPA)
   Lee Huntington         : MR-EOM, pCC
   Robert Izsak           : Overlap fitted RIJCOSX, COSX-SCS-MP3, EOM
   Christian Kollmar      : KDIIS, OOCD, Brueckner-CCSD(T), CCSD density
   Simone Kossmann        : Meta GGA functionals, TD-DFT gradient, OOMP2, MP2 Hessian
   Martin Krupicka        : AUTO-CI
   Lucas Lang             : DCDCAS
   Dagmar Lenk            : GEPOL surface, SMD
   Dimitrios Liakos       : Extrapolation schemes; Compound Job, initial MDCI parallelization
   Dimitrios Manganas     : Further ROCIS development; embedding schemes
   Dimitrios Pantazis     : SARC Basis sets
   Taras Petrenko         : DFT Hessian,TD-DFT gradient, ASA, ECA, R-Raman, ABS, FL, XAS/XES, NRVS
   Peter Pinski           : DLPNO-MP2, DLPNO-MP2 Gradient
   Christoph Reimann      : Effective Core Potentials
   Marius Retegan         : Local ZFS, SOC
   Christoph Riplinger    : Optimizer, TS searches, QM/MM, DLPNO-CCSD(T), (RO)-DLPNO pert. Triples
   Tobias Risthaus        : Range-separated hybrids, TD-DFT gradient, RPA, STAB
   Michael Roemelt        : Original ROCIS implementation
   Masaaki Saitow         : Open-shell DLPNO-CCSD energy and density
   Barbara Sandhoefer     : DKH picture change effects
   Avijit Sen             : IP-ROCIS
   Kantharuban Sivalingam : CASSCF convergence, NEVPT2, FIC-MRCI
   Bernardo de Souza      : ESD, SOC TD-DFT
   Georgi Stoychev        : AutoAux, RI-MP2 NMR
   Willem Van den Heuvel  : Paramagnetic NMR
   Boris Wezisla          : Elementary symmetry handling
   Frank Wennmohs         : Technical directorship


 We gratefully acknowledge several colleagues who have allowed us to
 interface, adapt or use parts of their codes:
   Stefan Grimme, W. Hujo, H. Kruse,             : VdW corrections, initial TS optimization,
                  C. Bannwarth                     DFT functionals, gCP, sTDA/sTD-DF
   Ed Valeev, F. Pavosevic, A. Kumar             : LibInt (2-el integral package), F12 methods
   Garnet Chan, S. Sharma, J. Yang, R. Olivares  : DMRG
   Ulf Ekstrom                                   : XCFun DFT Library
   Mihaly Kallay                                 : mrcc  (arbitrary order and MRCC methods)
   Andreas Klamt, Michael Diedenhofen            : otool_cosmo (COSMO solvation model)
   Jiri Pittner, Ondrej Demel                    : Mk-CCSD
   Frank Weinhold                                : gennbo (NPA and NBO analysis)
   Christopher J. Cramer and Donald G. Truhlar   : smd solvation model
   Lars Goerigk                                  : TD-DFT with DH, B97 family of functionals
   V. Asgeirsson, H. Jonsson                     : NEB implementation
   FAccTs GmbH                                   : IRC, NEB, NEB-TS, Multilevel, MM, QM/MM, CI optimization
   S Lehtola, MJT Oliveira, MAL Marques          : LibXC Library


 Your calculation uses the libint2 library for the computation of 2-el integrals
 For citations please refer to: http://libint.valeyev.net

 Your ORCA version has been built with support for libXC version: 4.2.3
 For citations please refer to: https://tddft.org/programs/libxc/

 This ORCA versions uses:
   CBLAS   interface :  Fast vector & matrix operations
   LAPACKE interface :  Fast linear algebra routines
   SCALAPACK package :  Parallel linear algebra routines


Your calculation utilizes the atom-pairwise dispersion correction
with the Becke-Johnson damping scheme (D3BJ)
Cite in your paper:
S.Grimme, S.Ehrlich, L.Goerigk, J Comput Chem, (2011), 32, 1456–1465 
S.Grimme, J.Antony, S.Ehrlich and H.Krieg, J.Chem.Phys., 132, (2010), 154104 
   

----- Orbital basis set information -----
Your calculation utilizes the basis: def2-TZVPPD
   F. Weigend and R. Ahlrichs, Phys. Chem. Chem. Phys. 7, 3297 (2005).
   D. Rappoport and F. Furche, J. Chem. Phys. 133 134105 (2010).

----- AuxJ basis set information -----
Your calculation utilizes the auxiliary basis: def2/J
   F. Weigend, Phys. Chem. Chem. Phys. 8, 1057 (2006).

cite the ECPs for Ag [Def2-ECP] as follows:
Ce-Yb(ecp-28): M. Dolg, H. Stoll, H.Preuss, J. Chem. Phys., 1989, 90, 1730-1734.
Y-Cd(ecp-28), Hf-Hg(ecp-46): D. Andrae,U. Haeussermann, M. Dolg, H. Stoll, H. Preuss, Theor. Chim. Acta, 1990, 77, 123-141.
In-Sb(ecp-28), Tl-Bi(ecp-46): B. Metz, H. Stoll, M. Dolg, J. Chem. Phys., 2000, 113, 2563-2569.
Te-Xe(ecp-28), Po-Rn(ecp-46): K. A. Peterson, D. Figgen, E. Goll, H. Stoll, M. Dolg, J. Chem. Phys., 2003, 119, 11113-11123.
Rb(ecp-28), Cs(ecp-46): T. Leininger, A. Nicklass, W. Kuechle, H. Stoll, M. Dolg, A. Bergner, Chem. Phys. Lett., 1996, 255, 274-280.
Sr(ecp-28), Ba(ecp-46): M. Kaupp, P. V. Schleyer, H. Stoll and H. Preuss, J. Chem. Phys., 1991, 94, 1360-1366.
La(ecp-46): M. Dolg, H. Stoll, A. Savin, H. Preuss, Theor. Chim. Acta, 1989, 75, 173-194.
Lu(ecp-28): X. Cao, M. Dolg, J. Chem. Phys., 2001, 115, 7348-7355.

ECP parameters for Ag [Def2-ECP] have been obtained from:
TURBOMOLE (7.0.2)

================================================================================
                                        WARNINGS
                       Please study these warnings very carefully!
================================================================================


INFO   : the flag for use of LIBINT has been found!

================================================================================
                                       INPUT FILE
================================================================================
NAME = Ag01N0_F.in
|  1> #
|  2> # Ag01N0_F TPSS-D3BJ/Def2-TZVPPD
|  3> #
|  4> ! tpss d3bj def2-tzvppd def2/j grid4 nofinalgrid
|  5> 
|  6> *xyz 0 1
|  7> Ag       0.000000    0.000000    0.317712 
|  8> F        0.000000    0.000000   -1.659163 
|  9> *
| 10> 
| 11> %maxcore 5000
| 12> 
| 13> %pal
| 14> nprocs = 24
| 15> end
| 16> 
| 17> 
| 18>                          ****END OF INPUT****
================================================================================

                       ****************************
                       * Single Point Calculation *
                       ****************************

---------------------------------
CARTESIAN COORDINATES (ANGSTROEM)
---------------------------------
  Ag     0.000000    0.000000    0.317712
  F      0.000000    0.000000   -1.659163

----------------------------
CARTESIAN COORDINATES (A.U.)
----------------------------
  NO LB      ZA    FRAG     MASS         X           Y           Z
   0 Ag   19.0000*   0   107.870    0.000000    0.000000    0.600389
   1 F     9.0000    0    18.998    0.000000    0.000000   -3.135364
* core charge reduced due to ECP

--------------------------------
INTERNAL COORDINATES (ANGSTROEM)
--------------------------------
 Ag     0   0   0     0.000000000000     0.00000000     0.00000000
 F      1   0   0     1.976875000000     0.00000000     0.00000000

---------------------------
INTERNAL COORDINATES (A.U.)
---------------------------
 Ag     0   0   0     0.000000000000     0.00000000     0.00000000
 F      1   0   0     3.735752350996     0.00000000     0.00000000

---------------------
BASIS SET INFORMATION
---------------------
There are 2 groups of distinct atoms

 Group   1 Type Ag  : 7s7p6d2f1g contracted to 6s4p3d2f1g pattern {211111/4111/411/11/1}
 Group   2 Type F   : 12s7p3d1f contracted to 6s4p3d1f pattern {621111/4111/111/1}

Atom   0Ag   basis set group =>   1
Atom   1F    basis set group =>   2
---------------------------------
AUXILIARY/J BASIS SET INFORMATION
---------------------------------
There are 2 groups of distinct atoms

 Group   1 Type Ag  : 11s5p5d3f3g contracted to 8s5p5d2f3g pattern {41111111/11111/11111/21/111}
 Group   2 Type F   : 12s5p4d2f1g contracted to 6s4p3d1f1g pattern {711111/2111/211/2/1}

Atom   0Ag   basis set group =>   1
Atom   1F    basis set group =>   2
-------------------------
ECP PARAMETER INFORMATION
-------------------------

 Group 1, Type Ag ECP Def2-ECP (replacing 28 core electrons, lmax=3)

Atom   0Ag   ECP group =>   1



           ************************************************************
           *        Program running with 24 parallel MPI-processes    *
           *              working on a common directory               *
           ************************************************************
------------------------------------------------------------------------------
                           ORCA GTO INTEGRAL CALCULATION
                           -- RI-GTO INTEGRALS CHOSEN --
------------------------------------------------------------------------------

                         BASIS SET STATISTICS AND STARTUP INFO

Gaussian basis set:
 # of primitive gaussian shells          ...   46
 # of primitive gaussian functions       ...  136
 # of contracted shells                  ...   30
 # of contracted basis functions         ...   96
 Highest angular momentum                ...    4
 Maximum contraction depth               ...    6
Auxiliary gaussian basis set:
 # of primitive gaussian shells          ...   51
 # of primitive gaussian functions       ...  169
 # of contracted shells                  ...   38
 # of contracted aux-basis functions     ...  138
 Highest angular momentum                ...    4
 Maximum contraction depth               ...    7
Ratio of auxiliary to basis functions    ...  1.44
Integral package used                  ... LIBINT
 One Electron integrals                  
   ECP integrals                         ... done
 Ordering auxiliary basis shells         ... done
 Integral threshhold             Thresh  ...  1.000e-10
 Primitive cut-off               TCut    ...  1.000e-11
 Pre-screening matrix                    ... done
 Shell pair data                         ... 
 Ordering of the shell pairs             ... done (   0.000 sec) 459 of 465 pairs
 Determination of significant pairs      ... done (   0.000 sec)
 Creation of shell pair data             ... done (   0.000 sec)
 Storage of shell pair data              ... done (   0.007 sec)
 Shell pair data done in (   0.007 sec)
 Computing two index integrals           ... done
 Cholesky decomposition of the V-matrix  ... done


Timings:
 Total evaluation time                   ...   0.225 sec (  0.004 min)
 One electron matrix time                ...   0.090 sec (  0.001 min) = 39.7%
 Schwartz matrix evaluation time         ...   0.102 sec (  0.002 min) = 45.4%
 Two index repulsion integral time       ...   0.000 sec (  0.000 min) =  0.2%
 Cholesky decomposition of V             ...   0.001 sec (  0.000 min) =  0.4%
 Three index repulsion integral time     ...   0.000 sec (  0.000 min) =  0.0%



           ************************************************************
           *        Program running with 24 parallel MPI-processes    *
           *              working on a common directory               *
           ************************************************************
-------------------------------------------------------------------------------
                                 ORCA SCF
-------------------------------------------------------------------------------

------------
SCF SETTINGS
------------
Hamiltonian:
 Density Functional     Method          .... DFT(GTOs)
 Exchange Functional    Exchange        .... TPSS
 Correlation Functional Correlation     .... TPSS
 LDA part of GGA corr.  LDAOpt          .... PW91-LDA
 Gradients option       PostSCFGGA      .... off
   Density functional embedding theory  .... OFF
   NL short-range parameter             ....  5.000000
 RI-approximation to the Coulomb term is turned on
   Number of auxiliary basis functions  .... 138


General Settings:
 Integral files         IntName         .... Ag01N0_F
 Hartree-Fock type      HFTyp           .... RHF
 Total Charge           Charge          ....    0
 Multiplicity           Mult            ....    1
 Number of Electrons    NEL             ....   28
 Basis Dimension        Dim             ....   96
 Nuclear Repulsion      ENuc            ....     45.7739121691 Eh

Convergence Acceleration:
 DIIS                   CNVDIIS         .... on
   Start iteration      DIISMaxIt       ....    12
   Startup error        DIISStart       ....  0.200000
   # of expansion vecs  DIISMaxEq       ....     5
   Bias factor          DIISBfac        ....   1.050
   Max. coefficient     DIISMaxC        ....  10.000
 Newton-Raphson         CNVNR           .... off
 SOSCF                  CNVSOSCF        .... off
 Level Shifting         CNVShift        .... on
   Level shift para.    LevelShift      ....    0.2500
   Turn off err/grad.   ShiftErr        ....    0.0010
 Zerner damping         CNVZerner       .... off
 Static damping         CNVDamp         .... on
   Fraction old density DampFac         ....    0.7000
   Max. Damping (<1)    DampMax         ....    0.9800
   Min. Damping (>=0)   DampMin         ....    0.0000
   Turn off err/grad.   DampErr         ....    0.1000
 Fernandez-Rico         CNVRico         .... off

SCF Procedure:
 Maximum # iterations   MaxIter         ....   125
 SCF integral mode      SCFMode         .... Direct
   Integral package                     .... LIBINT
 Reset frequency        DirectResetFreq ....    20
 Integral Threshold     Thresh          ....  1.000e-10 Eh
 Primitive CutOff       TCut            ....  1.000e-11 Eh

Convergence Tolerance:
 Convergence Check Mode ConvCheckMode   .... Total+1el-Energy
 Convergence forced     ConvForced      .... 0
 Energy Change          TolE            ....  1.000e-06 Eh
 1-El. energy change                    ....  1.000e-03 Eh
 DIIS Error             TolErr          ....  1.000e-06


Diagonalization of the overlap matrix:
Smallest eigenvalue                        ... 3.392e-03
Time for diagonalization                   ...    0.003 sec
Threshold for overlap eigenvalues          ... 1.000e-08
Number of eigenvalues below threshold      ... 0
Time for construction of square roots      ...    0.001 sec
Total time needed                          ...    0.004 sec

-------------------
DFT GRID GENERATION
-------------------

General Integration Accuracy     IntAcc      ...  4.670
Radial Grid Type                 RadialGrid  ... Gauss-Chebyshev
Angular Grid (max. acc.)         AngularGrid ... Lebedev-302
Angular grid pruning method      GridPruning ... 3 (G Style)
Weight generation scheme         WeightScheme... Becke
Basis function cutoff            BFCut       ...    1.0000e-10
Integration weight cutoff        WCut        ...    1.0000e-14
Grids for H and He will be reduced by one unit

# of grid points (after initial pruning)     ...  16930 (   0.0 sec)
# of grid points (after weights+screening)   ...  16875 (   0.0 sec)
nearest neighbour list constructed           ...    0.0 sec
Grid point re-assignment to atoms done       ...    0.0 sec
Grid point division into batches done        ...    0.1 sec
Reduced shell lists constructed in    0.1 sec

Total number of grid points                  ...    16875
Total number of batches                      ...      265
Average number of points per batch           ...       63
Average number of grid points per atom       ...     8438
Average number of shells per batch           ...     3.08 (10.26%)
Average number of basis functions per batch  ...     6.46 ( 6.73%)
Average number of large shells per batch     ...     2.00 (65.00%)
Average number of large basis fcns per batch ...     4.31 (66.67%)
Maximum spatial batch extension              ...  36.77, 40.43, 23.83 au
Average spatial batch extension              ...   1.19,  1.22,  0.86 au

Time for grid setup =    0.171 sec

------------------------------
INITIAL GUESS: MODEL POTENTIAL
------------------------------
Loading Hartree-Fock densities                     ... done
  calling /sw/apps/orca/orca_4_2_0_linux_x86-64_openmpi314/orca Ag01N0_F_atom47.inp > Ag01N0_F_atom47.out in order to generate an atomic fitting density for atom 0 (Ag with ECP) on-the-fly... 
    atom 0 (Ag), assumed electronic state with S=2: 1s2 2s2 2p6 3s2 3p6 4s2 3d10 4p6 5s2 4d9           ... done
Calculating cut-offs                               ... done
Setting up the integral package                    ... done
Initializing the effective Hamiltonian             ... done
Starting the Coulomb interaction                   ... done (   0.0 sec)
Reading the grid                                   ... done
Mapping shells                                     ... done
Starting the XC term evaluation                    ... done (   0.0 sec)
  promolecular density results
     # of electrons  =     56.001165919
     EX              =   -153.357809012
     EC              =     -2.789793162
     EX+EC           =   -156.147602174
Transforming the Hamiltonian                       ... done (   0.0 sec)
Diagonalizing the Hamiltonian                      ... done (   0.0 sec)
Back transforming the eigenvectors                 ... done (   0.0 sec)
Now organizing SCF variables                       ... done
                      ------------------
                      INITIAL GUESS DONE (   1.5 sec)
                      ------------------
--------------
SCF ITERATIONS
--------------
ITER       Energy         Delta-E        Max-DP      RMS-DP      [F,P]     Damp
               ***  Starting incremental Fock matrix formation  ***
  0   -246.6293624597   0.000000000000 0.10610865  0.00346554  0.5298905 0.7000
  1   -246.7276781743  -0.098315714669 0.07101865  0.00189154  0.3422804 0.7000
  2   -246.7480949024  -0.020416728123 0.02049617  0.00067150  0.2241739 0.7000
                               ***Turning on DIIS***
  3   -246.7675371950  -0.019442292531 0.01503263  0.00035304  0.1528019 0.7000
  4   -246.7823925677  -0.014855372767 0.00720762  0.00021452  0.1070679 0.7000
  5   -246.7924964571  -0.010103889403 0.01252032  0.00045719  0.0756710 0.0000
  6   -246.8160181901  -0.023521732965 0.00722642  0.00017314  0.0086945 0.0000
  7   -246.8160878028  -0.000069612733 0.00244905  0.00007772  0.0050081 0.0000
  8   -246.8161173660  -0.000029563197 0.00127146  0.00003476  0.0023445 0.0000
  9   -246.8161237544  -0.000006388386 0.00186501  0.00004790  0.0007599 0.0000
 10   -246.8161267120  -0.000002957551 0.00017363  0.00000476  0.0000944 0.0000
                 **** Energy Check signals convergence ****

               *****************************************************
               *                     SUCCESS                       *
               *           SCF CONVERGED AFTER  11 CYCLES          *
               *****************************************************


----------------
TOTAL SCF ENERGY
----------------

Total Energy       :         -246.81612673 Eh           -6716.20825 eV

Components:
Nuclear Repulsion  :           45.77391217 Eh            1245.57147 eV
Electronic Energy  :         -292.59003890 Eh           -7961.77973 eV
One Electron Energy:         -492.53362757 Eh          -13402.52138 eV
Two Electron Energy:          199.94358867 Eh            5440.74165 eV

Virial components:
Potential Energy   :         -402.66627074 Eh          -10957.10628 eV
Kinetic Energy     :          155.85014400 Eh            4240.89802 eV
Virial Ratio       :            2.58367596


DFT components:
N(Alpha)           :       14.000010634190 electrons
N(Beta)            :       14.000010634190 electrons
N(Total)           :       28.000021268380 electrons
E(X)               :      -23.420924384619 Eh       
E(C)               :       -1.134717830304 Eh       
E(XC)              :      -24.555642214924 Eh       
DFET-embed. en.    :        0.000000000000 Eh       

---------------
SCF CONVERGENCE
---------------

  Last Energy change         ...   -1.9338e-08  Tolerance :   1.0000e-06
  Last MAX-Density change    ...    8.3798e-05  Tolerance :   1.0000e-05
  Last RMS-Density change    ...    1.9187e-06  Tolerance :   1.0000e-06
  Last DIIS Error            ...    4.0389e-05  Tolerance :   1.0000e-06

             **** THE GBW FILE WAS UPDATED (Ag01N0_F.gbw) ****
             **** DENSITY FILE WAS UPDATED (Ag01N0_F.scfp) ****
             **** ENERGY FILE WAS UPDATED (Ag01N0_F.en.tmp) ****
             **** THE GBW FILE WAS UPDATED (Ag01N0_F.gbw) ****
             **** DENSITY FILE WAS UPDATED (Ag01N0_F.scfp) ****
----------------
ORBITAL ENERGIES
----------------

  NO   OCC          E(Eh)            E(eV) 
   0   2.0000     -24.306888      -661.4240 
   1   2.0000      -3.620432       -98.5170 
   2   2.0000      -2.245605       -61.1060 
   3   2.0000      -2.242203       -61.0134 
   4   2.0000      -2.242203       -61.0134 
   5   2.0000      -0.972473       -26.4623 
   6   2.0000      -0.352339        -9.5876 
   7   2.0000      -0.319090        -8.6829 
   8   2.0000      -0.319090        -8.6829 
   9   2.0000      -0.299390        -8.1468 
  10   2.0000      -0.299390        -8.1468 
  11   2.0000      -0.242857        -6.6085 
  12   2.0000      -0.242651        -6.6029 
  13   2.0000      -0.242651        -6.6029 
  14   0.0000      -0.143973        -3.9177 
  15   0.0000      -0.014523        -0.3952 
  16   0.0000      -0.014523        -0.3952 
  17   0.0000       0.025279         0.6879 
  18   0.0000       0.074396         2.0244 
  19   0.0000       0.136348         3.7102 
  20   0.0000       0.144154         3.9226 
  21   0.0000       0.144154         3.9226 
  22   0.0000       0.178287         4.8514 
  23   0.0000       0.178287         4.8514 
  24   0.0000       0.224612         6.1120 
  25   0.0000       0.324587         8.8325 
  26   0.0000       0.372475        10.1356 
  27   0.0000       0.372477        10.1356 
  28   0.0000       0.456392        12.4191 
  29   0.0000       0.456392        12.4191 
  30   0.0000       0.498746        13.5716 
  31   0.0000       0.544054        14.8045 
  32   0.0000       0.544065        14.8048 
  33   0.0000       0.662810        18.0360 
  34   0.0000       0.662810        18.0360 
  35   0.0000       0.664078        18.0705 
  36   0.0000       0.781049        21.2534 
  37   0.0000       0.781049        21.2534 
  38   0.0000       1.041830        28.3496 
  39   0.0000       1.088669        29.6242 
  40   0.0000       1.514658        41.2159 
  41   0.0000       1.514658        41.2159 
  42   0.0000       1.528042        41.5801 
  43   0.0000       1.528043        41.5802 
  44   0.0000       1.532736        41.7079 
  45   0.0000       1.532736        41.7079 
  46   0.0000       1.603541        43.6346 
  47   0.0000       1.625682        44.2371 
  48   0.0000       1.625682        44.2371 
  49   0.0000       1.713207        46.6187 
  50   0.0000       1.915221        52.1158 
  51   0.0000       1.965057        53.4719 
  52   0.0000       1.965057        53.4719 
  53   0.0000       1.974916        53.7402 
  54   0.0000       1.974916        53.7402 
  55   0.0000       2.015469        54.8437 
  56   0.0000       2.278213        61.9933 
  57   0.0000       2.278273        61.9950 
  58   0.0000       2.349492        63.9329 
  59   0.0000       2.349492        63.9329 
  60   0.0000       2.717025        73.9340 
  61   0.0000       3.340789        90.9075 
  62   0.0000       3.340789        90.9075 
  63   0.0000       3.647030        99.2407 
  64   0.0000       4.082837       111.0996 
  65   0.0000       4.704487       128.0156 
  66   0.0000       4.704487       128.0156 
  67   0.0000       4.714287       128.2823 
  68   0.0000       4.714303       128.2827 
  69   0.0000       4.779268       130.0505 
  70   0.0000       4.779268       130.0505 
  71   0.0000       4.971730       135.2877 
  72   0.0000       5.476993       149.0366 
  73   0.0000       5.477005       149.0369 
  74   0.0000       5.478505       149.0777 
  75   0.0000       5.478505       149.0777 
  76   0.0000       5.479135       149.0948 
  77   0.0000       5.479135       149.0948 
  78   0.0000       5.480922       149.1435 
  79   0.0000       5.480964       149.1446 
  80   0.0000       5.541730       150.7981 
  81   0.0000       6.954447       189.2401 
  82   0.0000       6.955749       189.2756 
  83   0.0000       6.971978       189.7172 
  84   0.0000       6.971978       189.7172 
  85   0.0000       6.979902       189.9328 
  86   0.0000       6.979902       189.9328 
  87   0.0000       7.094075       193.0396 
  88   0.0000       8.471221       230.5136 
  89   0.0000       8.471598       230.5239 
  90   0.0000       8.502351       231.3607 
  91   0.0000       8.502351       231.3607 
  92   0.0000       8.702660       236.8114 
  93   0.0000      33.257224       904.9751 
  94   0.0000      56.914743      1548.7289 
  95   0.0000     110.673504      3011.5792 

                    ********************************
                    * MULLIKEN POPULATION ANALYSIS *
                    ********************************

-----------------------
MULLIKEN ATOMIC CHARGES
-----------------------
   0 Ag:    0.650421
   1 F :   -0.650421
Sum of atomic charges:    0.0000000

--------------------------------
MULLIKEN REDUCED ORBITAL CHARGES
--------------------------------
  0 Ags       :     2.368299  s :     2.368299
      pz      :     2.017262  p :     6.074704
      px      :     2.028721
      py      :     2.028721
      dz2     :     1.904352  d :     9.900159
      dxz     :     1.997800
      dyz     :     1.997800
      dx2y2   :     2.000104
      dxy     :     2.000103
      f0      :     0.002982  f :     0.006333
      f+1     :     0.001586
      f-1     :     0.001586
      f+2     :     0.000090
      f-2     :     0.000090
      f+3     :     0.000000
      f-3     :     0.000000
      g0      :     0.000044  g :     0.000083
      g+1     :     0.000019
      g-1     :     0.000019
      g+2     :     0.000000
      g-2     :     0.000000
      g+3     :     0.000000
      g-3     :     0.000000
      g+4     :     0.000000
      g-4     :     0.000000
  1 F s       :     3.993088  s :     3.993088
      pz      :     1.709680  p :     5.652283
      px      :     1.971302
      py      :     1.971302
      dz2     :     0.004242  d :     0.004928
      dxz     :     0.000539
      dyz     :     0.000539
      dx2y2   :    -0.000196
      dxy     :    -0.000196
      f0      :     0.000052  f :     0.000122
      f+1     :     0.000032
      f-1     :     0.000032
      f+2     :     0.000003
      f-2     :     0.000003
      f+3     :     0.000000
      f-3     :     0.000000


                     *******************************
                     * LOEWDIN POPULATION ANALYSIS *
                     *******************************

----------------------
LOEWDIN ATOMIC CHARGES
----------------------
   0 Ag:    0.683185
   1 F :   -0.683185

-------------------------------
LOEWDIN REDUCED ORBITAL CHARGES
-------------------------------
  0 Ags       :     2.240361  s :     2.240361
      pz      :     2.058532  p :     6.136799
      px      :     2.039134
      py      :     2.039134
      dz2     :     1.948603  d :     9.928217
      dxz     :     1.992978
      dyz     :     1.992978
      dx2y2   :     1.996829
      dxy     :     1.996829
      f0      :     0.005884  f :     0.011285
      f+1     :     0.002596
      f-1     :     0.002596
      f+2     :     0.000105
      f-2     :     0.000105
      f+3     :     0.000000
      f-3     :     0.000000
      g0      :     0.000087  g :     0.000153
      g+1     :     0.000033
      g-1     :     0.000033
      g+2     :     0.000000
      g-2     :     0.000000
      g+3     :     0.000000
      g-3     :     0.000000
      g+4     :     0.000000
      g-4     :     0.000000
  1 F s       :     3.893157  s :     3.893157
      pz      :     1.799484  p :     5.687290
      px      :     1.943903
      py      :     1.943903
      dz2     :     0.053767  d :     0.102461
      dxz     :     0.021286
      dyz     :     0.021286
      dx2y2   :     0.003061
      dxy     :     0.003061
      f0      :     0.000125  f :     0.000277
      f+1     :     0.000070
      f-1     :     0.000070
      f+2     :     0.000006
      f-2     :     0.000006
      f+3     :     0.000000
      f-3     :     0.000000


                      *****************************
                      * MAYER POPULATION ANALYSIS *
                      *****************************

  NA   - Mulliken gross atomic population
  ZA   - Total nuclear charge
  QA   - Mulliken gross atomic charge
  VA   - Mayer's total valence
  BVA  - Mayer's bonded valence
  FA   - Mayer's free valence

  ATOM       NA         ZA         QA         VA         BVA        FA
  0 Ag    18.3496    19.0000     0.6504     0.5763     0.5763     0.0000
  1 F      9.6504     9.0000    -0.6504     0.5763     0.5763     0.0000

  Mayer bond orders larger than 0.100000
B(  0-Ag,  1-F ) :   0.5763 

-------
TIMINGS
-------

Total SCF time: 0 days 0 hours 0 min 2 sec 

Total time                  ....       2.585 sec
Sum of individual times     ....       2.490 sec  ( 96.3%)

Fock matrix formation       ....       1.006 sec  ( 38.9%)
  Split-RI-J                ....       0.806 sec  ( 80.1% of F)
  XC integration            ....       0.159 sec  ( 15.8% of F)
    Basis function eval.    ....       0.020 sec  ( 12.3% of XC)
    Density eval.           ....       0.026 sec  ( 16.6% of XC)
    XC-Functional eval.     ....       0.019 sec  ( 11.8% of XC)
    XC-Potential eval.      ....       0.039 sec  ( 24.6% of XC)
Diagonalization             ....       0.014 sec  (  0.5%)
Density matrix formation    ....       0.004 sec  (  0.1%)
Population analysis         ....       0.003 sec  (  0.1%)
Initial guess               ....       1.284 sec  ( 49.7%)
Orbital Transformation      ....       0.000 sec  (  0.0%)
Orbital Orthonormalization  ....       0.000 sec  (  0.0%)
DIIS solution               ....       0.008 sec  (  0.3%)
Grid generation             ....       0.171 sec  (  6.6%)


-------------------------------------------------------------------------------
                          DFT DISPERSION CORRECTION                            
                                                                               
                              DFTD3 V3.1  Rev 1                                
                          USING Becke-Johnson damping                          
-------------------------------------------------------------------------------
The TPSS functional is recognized
Active option DFTDOPT                   ...         4   

molecular C6(AA) [au] = 356.028846 


            DFT-D V3
 parameters
 s6 scaling factor         :     1.0000 
 a1 scaling factor         :     0.4535 
 s8 scaling factor         :     1.9435 
 a2 scaling factor         :     4.4752 
 ad hoc parameters k1-k3   :    16.0000     1.3333    -4.0000 

 Edisp/kcal,au: -0.380993934871  -0.000607152418 
 E6   /kcal   :  -0.156271724 
 E8   /kcal   :  -0.224722210 
 % E8         :  58.983146404 

-------------------------   ----------------
Dispersion correction           -0.000607152
-------------------------   ----------------


-------------------------   --------------------
FINAL SINGLE POINT ENERGY      -246.816733883737
-------------------------   --------------------


                            ***************************************
                            *     ORCA property calculations      *
                            ***************************************

                                    ---------------------
                                    Active property flags
                                    ---------------------
   (+) Dipole Moment


------------------------------------------------------------------------------
                       ORCA ELECTRIC PROPERTIES CALCULATION
------------------------------------------------------------------------------

Dipole Moment Calculation                       ... on
Quadrupole Moment Calculation                   ... off
Polarizability Calculation                      ... off
GBWName                                         ... Ag01N0_F.gbw
Electron density file                           ... Ag01N0_F.scfp
The origin for moment calculation is the CENTER OF MASS  = ( 0.000000,  0.000000  0.040974)

-------------
DIPOLE MOMENT
-------------
                                X             Y             Z
Electronic contribution:      0.00000       0.00000      20.04279
Nuclear contribution   :      0.00000       0.00000     -17.95816
                        -----------------------------------------
Total Dipole Moment    :      0.00000       0.00000       2.08463
                        -----------------------------------------
Magnitude (a.u.)       :      2.08463
Magnitude (Debye)      :      5.29872



--------------------
Rotational spectrum 
--------------------
 
Rotational constants in cm-1:     0.000000     0.267044     0.267044 
Rotational constants in MHz :     0.000000  8005.762772  8005.762772 

 Dipole components along the rotational axes: 
x,y,z [a.u.] :     2.084633     0.000000     0.000000 
x,y,z [Debye]:     5.298716     0.000000     0.000000 

 

Timings for individual modules:

Sum of individual times         ...        3.511 sec (=   0.059 min)
GTO integral calculation        ...        0.606 sec (=   0.010 min)  17.3 %
SCF iterations                  ...        2.904 sec (=   0.048 min)  82.7 %
                             ****ORCA TERMINATED NORMALLY****
TOTAL RUN TIME: 0 days 0 hours 0 minutes 4 seconds 29 msec
