
                                 *****************
                                 * O   R   C   A *
                                 *****************

           --- An Ab Initio, DFT and Semiempirical electronic structure package ---

                  #######################################################
                  #                        -***-                        #
                  #          Department of theory and spectroscopy      #
                  #               Directorship: Frank Neese             #
                  #        Max Planck Institute fuer Kohlenforschung    #
                  #                Kaiser Wilhelm Platz 1               #
                  #                 D-45470 Muelheim/Ruhr               #
                  #                      Germany                        #
                  #                                                     #
                  #                  All rights reserved                #
                  #                        -***-                        #
                  #######################################################


                         Program Version 4.2.0 -  RELEASE  -


 With contributions from (in alphabetic order):
   Daniel Aravena         : Magnetic Suceptibility
   Michael Atanasov       : Ab Initio Ligand Field Theory (pilot matlab implementation)
   Alexander A. Auer      : GIAO ZORA, VPT2
   Ute Becker             : Parallelization
   Giovanni Bistoni       : ED, misc. LED, open-shell LED, HFLED
   Martin Brehm           : Molecular dynamics
   Dmytro Bykov           : SCF Hessian
   Vijay G. Chilkuri      : MRCI spin determinant printing, contributions to CSF-ICE
   Dipayan Datta          : RHF DLPNO-CCSD density
   Achintya Kumar Dutta   : EOM-CC, STEOM-CC
   Dmitry Ganyushin       : Spin-Orbit,Spin-Spin,Magnetic field MRCI
   Miquel Garcia          : C-PCM Hessian, Gaussian charge scheme
   Yang Guo               : DLPNO-NEVPT2, CIM, IAO-localization
   Andreas Hansen         : Spin unrestricted coupled pair/coupled cluster methods
   Benjamin Helmich-Paris : CASSCF linear response (MC-RPA)
   Lee Huntington         : MR-EOM, pCC
   Robert Izsak           : Overlap fitted RIJCOSX, COSX-SCS-MP3, EOM
   Christian Kollmar      : KDIIS, OOCD, Brueckner-CCSD(T), CCSD density
   Simone Kossmann        : Meta GGA functionals, TD-DFT gradient, OOMP2, MP2 Hessian
   Martin Krupicka        : AUTO-CI
   Lucas Lang             : DCDCAS
   Dagmar Lenk            : GEPOL surface, SMD
   Dimitrios Liakos       : Extrapolation schemes; Compound Job, initial MDCI parallelization
   Dimitrios Manganas     : Further ROCIS development; embedding schemes
   Dimitrios Pantazis     : SARC Basis sets
   Taras Petrenko         : DFT Hessian,TD-DFT gradient, ASA, ECA, R-Raman, ABS, FL, XAS/XES, NRVS
   Peter Pinski           : DLPNO-MP2, DLPNO-MP2 Gradient
   Christoph Reimann      : Effective Core Potentials
   Marius Retegan         : Local ZFS, SOC
   Christoph Riplinger    : Optimizer, TS searches, QM/MM, DLPNO-CCSD(T), (RO)-DLPNO pert. Triples
   Tobias Risthaus        : Range-separated hybrids, TD-DFT gradient, RPA, STAB
   Michael Roemelt        : Original ROCIS implementation
   Masaaki Saitow         : Open-shell DLPNO-CCSD energy and density
   Barbara Sandhoefer     : DKH picture change effects
   Avijit Sen             : IP-ROCIS
   Kantharuban Sivalingam : CASSCF convergence, NEVPT2, FIC-MRCI
   Bernardo de Souza      : ESD, SOC TD-DFT
   Georgi Stoychev        : AutoAux, RI-MP2 NMR
   Willem Van den Heuvel  : Paramagnetic NMR
   Boris Wezisla          : Elementary symmetry handling
   Frank Wennmohs         : Technical directorship


 We gratefully acknowledge several colleagues who have allowed us to
 interface, adapt or use parts of their codes:
   Stefan Grimme, W. Hujo, H. Kruse,             : VdW corrections, initial TS optimization,
                  C. Bannwarth                     DFT functionals, gCP, sTDA/sTD-DF
   Ed Valeev, F. Pavosevic, A. Kumar             : LibInt (2-el integral package), F12 methods
   Garnet Chan, S. Sharma, J. Yang, R. Olivares  : DMRG
   Ulf Ekstrom                                   : XCFun DFT Library
   Mihaly Kallay                                 : mrcc  (arbitrary order and MRCC methods)
   Andreas Klamt, Michael Diedenhofen            : otool_cosmo (COSMO solvation model)
   Jiri Pittner, Ondrej Demel                    : Mk-CCSD
   Frank Weinhold                                : gennbo (NPA and NBO analysis)
   Christopher J. Cramer and Donald G. Truhlar   : smd solvation model
   Lars Goerigk                                  : TD-DFT with DH, B97 family of functionals
   V. Asgeirsson, H. Jonsson                     : NEB implementation
   FAccTs GmbH                                   : IRC, NEB, NEB-TS, Multilevel, MM, QM/MM, CI optimization
   S Lehtola, MJT Oliveira, MAL Marques          : LibXC Library


 Your calculation uses the libint2 library for the computation of 2-el integrals
 For citations please refer to: http://libint.valeyev.net

 Your ORCA version has been built with support for libXC version: 4.2.3
 For citations please refer to: https://tddft.org/programs/libxc/

 This ORCA versions uses:
   CBLAS   interface :  Fast vector & matrix operations
   LAPACKE interface :  Fast linear algebra routines
   SCALAPACK package :  Parallel linear algebra routines


Your calculation utilizes the atom-pairwise dispersion correction
with the Becke-Johnson damping scheme (D3BJ)
Cite in your paper:
S.Grimme, S.Ehrlich, L.Goerigk, J Comput Chem, (2011), 32, 1456–1465 
S.Grimme, J.Antony, S.Ehrlich and H.Krieg, J.Chem.Phys., 132, (2010), 154104 
   

----- Orbital basis set information -----
Your calculation utilizes the basis: def2-TZVPPD
   F. Weigend and R. Ahlrichs, Phys. Chem. Chem. Phys. 7, 3297 (2005).
   D. Rappoport and F. Furche, J. Chem. Phys. 133 134105 (2010).

----- AuxJ basis set information -----
Your calculation utilizes the auxiliary basis: def2/J
   F. Weigend, Phys. Chem. Chem. Phys. 8, 1057 (2006).

cite the ECPs for Ag [Def2-ECP] as follows:
Ce-Yb(ecp-28): M. Dolg, H. Stoll, H.Preuss, J. Chem. Phys., 1989, 90, 1730-1734.
Y-Cd(ecp-28), Hf-Hg(ecp-46): D. Andrae,U. Haeussermann, M. Dolg, H. Stoll, H. Preuss, Theor. Chim. Acta, 1990, 77, 123-141.
In-Sb(ecp-28), Tl-Bi(ecp-46): B. Metz, H. Stoll, M. Dolg, J. Chem. Phys., 2000, 113, 2563-2569.
Te-Xe(ecp-28), Po-Rn(ecp-46): K. A. Peterson, D. Figgen, E. Goll, H. Stoll, M. Dolg, J. Chem. Phys., 2003, 119, 11113-11123.
Rb(ecp-28), Cs(ecp-46): T. Leininger, A. Nicklass, W. Kuechle, H. Stoll, M. Dolg, A. Bergner, Chem. Phys. Lett., 1996, 255, 274-280.
Sr(ecp-28), Ba(ecp-46): M. Kaupp, P. V. Schleyer, H. Stoll and H. Preuss, J. Chem. Phys., 1991, 94, 1360-1366.
La(ecp-46): M. Dolg, H. Stoll, A. Savin, H. Preuss, Theor. Chim. Acta, 1989, 75, 173-194.
Lu(ecp-28): X. Cao, M. Dolg, J. Chem. Phys., 2001, 115, 7348-7355.

ECP parameters for Ag [Def2-ECP] have been obtained from:
TURBOMOLE (7.0.2)

================================================================================
                                        WARNINGS
                       Please study these warnings very carefully!
================================================================================


WARNING: your system is open-shell and RHF/RKS was chosen
  ===> : WILL SWITCH to UHF/UKS


INFO   : the flag for use of LIBINT has been found!

================================================================================
                                       INPUT FILE
================================================================================
NAME = Ag03N0_LIN.in
|  1> #
|  2> # Ag03N0_LIN TPSS-D3BJ/Def2-TZVPPD
|  3> #
|  4> ! tpss d3bj def2-tzvppd def2/j grid4 nofinalgrid
|  5> 
|  6> *xyz 0 2
|  7> Ag       0.000000    0.000000    0.000000 
|  8> Ag       0.000000    0.000000    2.592532 
|  9> Ag       0.000000    0.000000   -2.592532 
| 10> *
| 11> 
| 12> %maxcore 5000
| 13> 
| 14> %pal
| 15> nprocs = 24
| 16> end
| 17> 
| 18> 
| 19>                          ****END OF INPUT****
================================================================================

                       ****************************
                       * Single Point Calculation *
                       ****************************

---------------------------------
CARTESIAN COORDINATES (ANGSTROEM)
---------------------------------
  Ag     0.000000    0.000000    0.000000
  Ag     0.000000    0.000000    2.592532
  Ag     0.000000    0.000000   -2.592532

----------------------------
CARTESIAN COORDINATES (A.U.)
----------------------------
  NO LB      ZA    FRAG     MASS         X           Y           Z
   0 Ag   19.0000*   0   107.870    0.000000    0.000000    0.000000
   1 Ag   19.0000*   0   107.870    0.000000    0.000000    4.899175
   2 Ag   19.0000*   0   107.870    0.000000    0.000000   -4.899175
* core charge reduced due to ECP

--------------------------------
INTERNAL COORDINATES (ANGSTROEM)
--------------------------------
 Ag     0   0   0     0.000000000000     0.00000000     0.00000000
 Ag     1   0   0     2.592532000000     0.00000000     0.00000000
 Ag     1   2   0     2.592532000000   180.00000000     0.00000000

---------------------------
INTERNAL COORDINATES (A.U.)
---------------------------
 Ag     0   0   0     0.000000000000     0.00000000     0.00000000
 Ag     1   0   0     4.899175473427     0.00000000     0.00000000
 Ag     1   2   0     4.899175473427   180.00000000     0.00000000

---------------------
BASIS SET INFORMATION
---------------------
There are 1 groups of distinct atoms

 Group   1 Type Ag  : 7s7p6d2f1g contracted to 6s4p3d2f1g pattern {211111/4111/411/11/1}

Atom   0Ag   basis set group =>   1
Atom   1Ag   basis set group =>   1
Atom   2Ag   basis set group =>   1
---------------------------------
AUXILIARY/J BASIS SET INFORMATION
---------------------------------
There are 1 groups of distinct atoms

 Group   1 Type Ag  : 11s5p5d3f3g contracted to 8s5p5d2f3g pattern {41111111/11111/11111/21/111}

Atom   0Ag   basis set group =>   1
Atom   1Ag   basis set group =>   1
Atom   2Ag   basis set group =>   1
-------------------------
ECP PARAMETER INFORMATION
-------------------------

 Group 1, Type Ag ECP Def2-ECP (replacing 28 core electrons, lmax=3)

Atom   0Ag   ECP group =>   1
Atom   1Ag   ECP group =>   1
Atom   2Ag   ECP group =>   1



           ************************************************************
           *        Program running with 24 parallel MPI-processes    *
           *              working on a common directory               *
           ************************************************************
------------------------------------------------------------------------------
                           ORCA GTO INTEGRAL CALCULATION
                           -- RI-GTO INTEGRALS CHOSEN --
------------------------------------------------------------------------------

                         BASIS SET STATISTICS AND STARTUP INFO

Gaussian basis set:
 # of primitive gaussian shells          ...   69
 # of primitive gaussian functions       ...  243
 # of contracted shells                  ...   48
 # of contracted basis functions         ...  168
 Highest angular momentum                ...    4
 Maximum contraction depth               ...    4
Auxiliary gaussian basis set:
 # of primitive gaussian shells          ...   81
 # of primitive gaussian functions       ...  297
 # of contracted shells                  ...   69
 # of contracted aux-basis functions     ...  267
 Highest angular momentum                ...    4
 Maximum contraction depth               ...    4
Ratio of auxiliary to basis functions    ...  1.59
Integral package used                  ... LIBINT
 One Electron integrals                  
   ECP integrals                         ... done
 Ordering auxiliary basis shells         ... done
 Integral threshhold             Thresh  ...  1.000e-10
 Primitive cut-off               TCut    ...  1.000e-11
 Pre-screening matrix                    ... done
 Shell pair data                         ... 
 Ordering of the shell pairs             ... done (   0.000 sec) 1062 of 1176 pairs
 Determination of significant pairs      ... done (   0.000 sec)
 Creation of shell pair data             ... done (   0.000 sec)
 Storage of shell pair data              ... done (   0.007 sec)
 Shell pair data done in (   0.008 sec)
 Computing two index integrals           ... done
 Cholesky decomposition of the V-matrix  ... done


Timings:
 Total evaluation time                   ...   0.533 sec (  0.009 min)
 One electron matrix time                ...   0.286 sec (  0.005 min) = 53.6%
 Schwartz matrix evaluation time         ...   0.143 sec (  0.002 min) = 26.8%
 Two index repulsion integral time       ...   0.001 sec (  0.000 min) =  0.2%
 Cholesky decomposition of V             ...   0.067 sec (  0.001 min) = 12.5%
 Three index repulsion integral time     ...   0.000 sec (  0.000 min) =  0.0%



           ************************************************************
           *        Program running with 24 parallel MPI-processes    *
           *              working on a common directory               *
           ************************************************************
-------------------------------------------------------------------------------
                                 ORCA SCF
-------------------------------------------------------------------------------

------------
SCF SETTINGS
------------
Hamiltonian:
 Density Functional     Method          .... DFT(GTOs)
 Exchange Functional    Exchange        .... TPSS
 Correlation Functional Correlation     .... TPSS
 LDA part of GGA corr.  LDAOpt          .... PW91-LDA
 Gradients option       PostSCFGGA      .... off
   Density functional embedding theory  .... OFF
   NL short-range parameter             ....  5.000000
 RI-approximation to the Coulomb term is turned on
   Number of auxiliary basis functions  .... 267


General Settings:
 Integral files         IntName         .... Ag03N0_LIN
 Hartree-Fock type      HFTyp           .... UHF
 Total Charge           Charge          ....    0
 Multiplicity           Mult            ....    2
 Number of Electrons    NEL             ....   57
 Basis Dimension        Dim             ....  168
 Nuclear Repulsion      ENuc            ....    184.2146714065 Eh

Convergence Acceleration:
 DIIS                   CNVDIIS         .... on
   Start iteration      DIISMaxIt       ....    12
   Startup error        DIISStart       ....  0.200000
   # of expansion vecs  DIISMaxEq       ....     5
   Bias factor          DIISBfac        ....   1.050
   Max. coefficient     DIISMaxC        ....  10.000
 Newton-Raphson         CNVNR           .... off
 SOSCF                  CNVSOSCF        .... off
 Level Shifting         CNVShift        .... on
   Level shift para.    LevelShift      ....    0.2500
   Turn off err/grad.   ShiftErr        ....    0.0010
 Zerner damping         CNVZerner       .... off
 Static damping         CNVDamp         .... on
   Fraction old density DampFac         ....    0.7000
   Max. Damping (<1)    DampMax         ....    0.9800
   Min. Damping (>=0)   DampMin         ....    0.0000
   Turn off err/grad.   DampErr         ....    0.1000
 Fernandez-Rico         CNVRico         .... off

SCF Procedure:
 Maximum # iterations   MaxIter         ....   125
 SCF integral mode      SCFMode         .... Direct
   Integral package                     .... LIBINT
 Reset frequency        DirectResetFreq ....    20
 Integral Threshold     Thresh          ....  1.000e-10 Eh
 Primitive CutOff       TCut            ....  1.000e-11 Eh

Convergence Tolerance:
 Convergence Check Mode ConvCheckMode   .... Total+1el-Energy
 Convergence forced     ConvForced      .... 0
 Energy Change          TolE            ....  1.000e-06 Eh
 1-El. energy change                    ....  1.000e-03 Eh
 DIIS Error             TolErr          ....  1.000e-06


Diagonalization of the overlap matrix:
Smallest eigenvalue                        ... 1.205e-03
Time for diagonalization                   ...    0.007 sec
Threshold for overlap eigenvalues          ... 1.000e-08
Number of eigenvalues below threshold      ... 0
Time for construction of square roots      ...    0.004 sec
Total time needed                          ...    0.011 sec

-------------------
DFT GRID GENERATION
-------------------

General Integration Accuracy     IntAcc      ...  4.670
Radial Grid Type                 RadialGrid  ... Gauss-Chebyshev
Angular Grid (max. acc.)         AngularGrid ... Lebedev-302
Angular grid pruning method      GridPruning ... 3 (G Style)
Weight generation scheme         WeightScheme... Becke
Basis function cutoff            BFCut       ...    1.0000e-10
Integration weight cutoff        WCut        ...    1.0000e-14
Grids for H and He will be reduced by one unit

# of grid points (after initial pruning)     ...  31974 (   0.0 sec)
# of grid points (after weights+screening)   ...  31762 (   0.0 sec)
nearest neighbour list constructed           ...    0.0 sec
Grid point re-assignment to atoms done       ...    0.0 sec
Grid point division into batches done        ...    0.3 sec
Reduced shell lists constructed in    0.3 sec

Total number of grid points                  ...    31762
Total number of batches                      ...      498
Average number of points per batch           ...       63
Average number of grid points per atom       ...    10587
Average number of shells per batch           ...    11.91 (24.81%)
Average number of basis functions per batch  ...    30.45 (18.13%)
Average number of large shells per batch     ...     9.77 (82.06%)
Average number of large basis fcns per batch ...    24.32 (79.85%)
Maximum spatial batch extension              ...  36.77, 36.77,  4.81 au
Average spatial batch extension              ...   0.55,  0.56,  0.20 au

Time for grid setup =    0.346 sec

------------------------------
INITIAL GUESS: MODEL POTENTIAL
------------------------------
Loading Hartree-Fock densities                     ... done
  calling /sw/apps/orca/orca_4_2_0_linux_x86-64_openmpi314/orca Ag03N0_LIN_atom47.inp > Ag03N0_LIN_atom47.out in order to generate an atomic fitting density for atom 0 (Ag with ECP) on-the-fly... 
    atom 0 (Ag), assumed electronic state with S=2: 1s2 2s2 2p6 3s2 3p6 4s2 3d10 4p6 5s2 4d9           ... done
Calculating cut-offs                               ... done
Setting up the integral package                    ... done
Initializing the effective Hamiltonian             ... done
Starting the Coulomb interaction                   ... done (   0.0 sec)
Reading the grid                                   ... done
Mapping shells                                     ... done
Starting the XC term evaluation                    ... done (   0.0 sec)
  promolecular density results
     # of electrons  =    141.001771318
     EX              =   -430.283861762
     EC              =     -7.463897503
     EX+EC           =   -437.747759264
Transforming the Hamiltonian                       ... done (   0.0 sec)
Diagonalizing the Hamiltonian                      ... done (   0.0 sec)
Back transforming the eigenvectors                 ... done (   0.0 sec)
Now organizing SCF variables                       ... done
                      ------------------
                      INITIAL GUESS DONE (   1.8 sec)
                      ------------------
--------------
SCF ITERATIONS
--------------
ITER       Energy         Delta-E        Max-DP      RMS-DP      [F,P]     Damp
               ***  Starting incremental Fock matrix formation  ***
  0   -440.5032437509   0.000000000000 0.06412129  0.00166793  0.5142667 0.7000
  1   -440.6662727305  -0.163028979594 0.04885014  0.00098955  0.3304574 0.7000
  2   -440.7123479765  -0.046075246016 0.02457911  0.00036059  0.2168412 0.7000
                               ***Turning on DIIS***
  3   -440.7459308483  -0.033582871711 0.01055607  0.00015718  0.1489583 0.7000
  4   -440.7714401109  -0.025509262647 0.00672587  0.00013480  0.1048268 0.7000
  5   -440.7892358691  -0.017795758202 0.01864746  0.00036356  0.0733756 0.0000
  6   -440.8307346836  -0.041498814502 0.00349143  0.00004731  0.0010802 0.0000
  7   -440.8307462897  -0.000011606137 0.00090381  0.00001780  0.0013114 0.0000
  8   -440.8307573875  -0.000011097775 0.00230854  0.00002441  0.0001791 0.0000
  9   -440.8307609934  -0.000003605896 0.00076816  0.00000644  0.0001961 0.0000
 10   -440.8307613619  -0.000000368459 0.00023559  0.00000220  0.0000974 0.0000
 11   -440.8307614474  -0.000000085554 0.00009683  0.00000112  0.0000416 0.0000
                 **** Energy Check signals convergence ****

               *****************************************************
               *                     SUCCESS                       *
               *           SCF CONVERGED AFTER  12 CYCLES          *
               *****************************************************


----------------
TOTAL SCF ENERGY
----------------

Total Energy       :         -440.83076146 Eh          -11995.61486 eV

Components:
Nuclear Repulsion  :          184.21467141 Eh            5012.73605 eV
Electronic Energy  :         -625.04543287 Eh          -17008.35092 eV
One Electron Energy:        -1151.38340208 Eh          -31330.73519 eV
Two Electron Energy:          526.33796921 Eh           14322.38428 eV

Virial components:
Potential Energy   :         -609.30433364 Eh          -16580.01383 eV
Kinetic Energy     :          168.47357217 Eh            4584.39897 eV
Virial Ratio       :            3.61661669


DFT components:
N(Alpha)           :       28.999980924791 electrons
N(Beta)            :       27.999977144184 electrons
N(Total)           :       56.999958068975 electrons
E(X)               :      -39.733337607338 Eh       
E(C)               :       -2.471704859168 Eh       
E(XC)              :      -42.205042466506 Eh       
DFET-embed. en.    :        0.000000000000 Eh       

---------------
SCF CONVERGENCE
---------------

  Last Energy change         ...   -1.6056e-08  Tolerance :   1.0000e-06
  Last MAX-Density change    ...    8.5221e-05  Tolerance :   1.0000e-05
  Last RMS-Density change    ...    5.9931e-07  Tolerance :   1.0000e-06
  Last DIIS Error            ...    3.8104e-05  Tolerance :   1.0000e-06

             **** THE GBW FILE WAS UPDATED (Ag03N0_LIN.gbw) ****
             **** DENSITY FILE WAS UPDATED (Ag03N0_LIN.scfp) ****
             **** ENERGY FILE WAS UPDATED (Ag03N0_LIN.en.tmp) ****
----------------------
UHF SPIN CONTAMINATION
----------------------

Warning: in a DFT calculation there is little theoretical justification to 
         calculate <S**2> as in Hartree-Fock theory. We will do it anyways
         but you should keep in mind that the values have only limited relevance

Expectation value of <S**2>     :     0.754176
Ideal value S*(S+1) for S=0.5   :     0.750000
Deviation                       :     0.004176

             **** THE GBW FILE WAS UPDATED (Ag03N0_LIN.gbw) ****
             **** DENSITY FILE WAS UPDATED (Ag03N0_LIN.scfp) ****
----------------
ORBITAL ENERGIES
----------------
                 SPIN UP ORBITALS
  NO   OCC          E(Eh)            E(eV) 
   0   1.0000      -3.590762       -97.7096 
   1   1.0000      -3.590755       -97.7094 
   2   1.0000      -3.579866       -97.4131 
   3   1.0000      -2.217058       -60.3292 
   4   1.0000      -2.215973       -60.2997 
   5   1.0000      -2.211827       -60.1869 
   6   1.0000      -2.211827       -60.1869 
   7   1.0000      -2.211818       -60.1866 
   8   1.0000      -2.211818       -60.1866 
   9   1.0000      -2.204476       -59.9869 
  10   1.0000      -2.199754       -59.8583 
  11   1.0000      -2.199754       -59.8583 
  12   1.0000      -0.322141        -8.7659 
  13   1.0000      -0.294925        -8.0253 
  14   1.0000      -0.294925        -8.0253 
  15   1.0000      -0.280709        -7.6385 
  16   1.0000      -0.277059        -7.5392 
  17   1.0000      -0.277059        -7.5392 
  18   1.0000      -0.272754        -7.4220 
  19   1.0000      -0.272750        -7.4219 
  20   1.0000      -0.271412        -7.3855 
  21   1.0000      -0.271409        -7.3854 
  22   1.0000      -0.253749        -6.9049 
  23   1.0000      -0.253744        -6.9047 
  24   1.0000      -0.243453        -6.6247 
  25   1.0000      -0.243453        -6.6247 
  26   1.0000      -0.238839        -6.4991 
  27   1.0000      -0.204266        -5.5584 
  28   1.0000      -0.174925        -4.7599 
  29   0.0000      -0.090943        -2.4747 
  30   0.0000      -0.046247        -1.2584 
  31   0.0000      -0.046247        -1.2584 
  32   0.0000      -0.023521        -0.6400 
  33   0.0000      -0.011235        -0.3057 
  34   0.0000      -0.011235        -0.3057 
  35   0.0000       0.054932         1.4948 
  36   0.0000       0.054932         1.4948 
  37   0.0000       0.064113         1.7446 
  38   0.0000       0.086389         2.3508 
  39   0.0000       0.088026         2.3953 
  40   0.0000       0.116033         3.1574 
  41   0.0000       0.155405         4.2288 
  42   0.0000       0.155405         4.2288 
  43   0.0000       0.165423         4.5014 
  44   0.0000       0.185873         5.0579 
  45   0.0000       0.185873         5.0579 
  46   0.0000       0.238244         6.4830 
  47   0.0000       0.238244         6.4830 
  48   0.0000       0.252213         6.8631 
  49   0.0000       0.270434         7.3589 
  50   0.0000       0.344010         9.3610 
  51   0.0000       0.344011         9.3610 
  52   0.0000       0.375598        10.2205 
  53   0.0000       0.375598        10.2205 
  54   0.0000       0.385271        10.4838 
  55   0.0000       0.385271        10.4838 
  56   0.0000       0.416089        11.3224 
  57   0.0000       0.473837        12.8938 
  58   0.0000       0.473840        12.8938 
  59   0.0000       0.481120        13.0919 
  60   0.0000       0.481120        13.0919 
  61   0.0000       0.584476        15.9044 
  62   0.0000       0.659928        17.9575 
  63   0.0000       0.664789        18.0898 
  64   0.0000       0.664789        18.0898 
  65   0.0000       0.730445        19.8764 
  66   0.0000       1.389912        37.8214 
  67   0.0000       1.487014        40.4637 
  68   0.0000       1.487014        40.4637 
  69   0.0000       1.533915        41.7399 
  70   0.0000       1.533917        41.7400 
  71   0.0000       1.544886        42.0385 
  72   0.0000       1.544886        42.0385 
  73   0.0000       1.544950        42.0402 
  74   0.0000       1.544950        42.0402 
  75   0.0000       1.545623        42.0585 
  76   0.0000       1.545625        42.0586 
  77   0.0000       1.554196        42.2918 
  78   0.0000       1.555509        42.3276 
  79   0.0000       1.555509        42.3276 
  80   0.0000       1.561395        42.4877 
  81   0.0000       1.561395        42.4877 
  82   0.0000       1.564360        42.5684 
  83   0.0000       1.564360        42.5684 
  84   0.0000       1.570825        42.7443 
  85   0.0000       1.570828        42.7444 
  86   0.0000       1.583917        43.1006 
  87   0.0000       1.583917        43.1006 
  88   0.0000       1.618205        44.0336 
  89   0.0000       1.629157        44.3316 
  90   0.0000       1.632698        44.4280 
  91   0.0000       1.632698        44.4280 
  92   0.0000       1.701390        46.2972 
  93   0.0000       1.701390        46.2972 
  94   0.0000       1.712209        46.5916 
  95   0.0000       1.825621        49.6777 
  96   0.0000       1.888854        51.3983 
  97   0.0000       1.976041        53.7708 
  98   0.0000       1.976057        53.7712 
  99   0.0000       1.987614        54.0857 
 100   0.0000       1.987629        54.0861 
 101   0.0000       2.003878        54.5283 
 102   0.0000       2.003878        54.5283 
 103   0.0000       2.035791        55.3967 
 104   0.0000       2.035804        55.3970 
 105   0.0000       2.056973        55.9731 
 106   0.0000       2.056973        55.9731 
 107   0.0000       2.097636        57.0796 
 108   0.0000       2.123431        57.7815 
 109   0.0000       2.156141        58.6716 
 110   0.0000       2.156141        58.6716 
 111   0.0000       2.287556        62.2476 
 112   0.0000       2.303558        62.6830 
 113   0.0000       2.631114        71.5963 
 114   0.0000       4.670514       127.0912 
 115   0.0000       4.682663       127.4217 
 116   0.0000       4.682663       127.4217 
 117   0.0000       4.724860       128.5700 
 118   0.0000       4.725298       128.5819 
 119   0.0000       4.734608       128.8352 
 120   0.0000       4.734608       128.8352 
 121   0.0000       4.734670       128.8369 
 122   0.0000       4.734670       128.8369 
 123   0.0000       4.736067       128.8749 
 124   0.0000       4.736457       128.8855 
 125   0.0000       4.748523       129.2139 
 126   0.0000       4.748523       129.2139 
 127   0.0000       4.756301       129.4255 
 128   0.0000       4.756842       129.4403 
 129   0.0000       4.777524       130.0030 
 130   0.0000       4.777524       130.0030 
 131   0.0000       4.837841       131.6443 
 132   0.0000       4.837841       131.6443 
 133   0.0000       4.902577       133.4059 
 134   0.0000       5.057777       137.6291 
 135   0.0000       5.507982       149.8798 
 136   0.0000       5.507982       149.8798 
 137   0.0000       5.508572       149.8959 
 138   0.0000       5.508658       149.8982 
 139   0.0000       5.508669       149.8985 
 140   0.0000       5.508669       149.8985 
 141   0.0000       5.508928       149.9055 
 142   0.0000       5.509013       149.9079 
 143   0.0000       5.510309       149.9431 
 144   0.0000       5.510309       149.9431 
 145   0.0000       5.510310       149.9432 
 146   0.0000       5.510310       149.9432 
 147   0.0000       5.511044       149.9631 
 148   0.0000       5.511586       149.9779 
 149   0.0000       5.511614       149.9787 
 150   0.0000       5.512371       149.9992 
 151   0.0000       5.512371       149.9992 
 152   0.0000       5.513214       150.0222 
 153   0.0000       5.522216       150.2671 
 154   0.0000       5.522355       150.2709 
 155   0.0000       5.524094       150.3182 
 156   0.0000       5.524094       150.3182 
 157   0.0000       5.524775       150.3368 
 158   0.0000       5.524775       150.3368 
 159   0.0000       5.527160       150.4017 
 160   0.0000       5.528260       150.4316 
 161   0.0000       5.543087       150.8351 
 162   0.0000      33.229119       904.2103 
 163   0.0000      33.378585       908.2775 
 164   0.0000      33.768809       918.8960 
 165   0.0000     110.683801      3011.8594 
 166   0.0000     110.730363      3013.1264 
 167   0.0000     110.861416      3016.6925 

                 SPIN DOWN ORBITALS
  NO   OCC          E(Eh)            E(eV) 
   0   1.0000      -3.590917       -97.7138 
   1   1.0000      -3.590909       -97.7136 
   2   1.0000      -3.579981       -97.4162 
   3   1.0000      -2.216513       -60.3144 
   4   1.0000      -2.215397       -60.2840 
   5   1.0000      -2.211983       -60.1911 
   6   1.0000      -2.211983       -60.1911 
   7   1.0000      -2.211974       -60.1909 
   8   1.0000      -2.211974       -60.1909 
   9   1.0000      -2.204393       -59.9846 
  10   1.0000      -2.200014       -59.8654 
  11   1.0000      -2.200014       -59.8654 
  12   1.0000      -0.318600        -8.6696 
  13   1.0000      -0.291601        -7.9349 
  14   1.0000      -0.291601        -7.9349 
  15   1.0000      -0.276963        -7.5366 
  16   1.0000      -0.272851        -7.4246 
  17   1.0000      -0.272851        -7.4246 
  18   1.0000      -0.268389        -7.3032 
  19   1.0000      -0.268385        -7.3031 
  20   1.0000      -0.266687        -7.2569 
  21   1.0000      -0.266683        -7.2568 
  22   1.0000      -0.253778        -6.9056 
  23   1.0000      -0.253773        -6.9055 
  24   1.0000      -0.242115        -6.5883 
  25   1.0000      -0.242115        -6.5883 
  26   1.0000      -0.235344        -6.4040 
  27   1.0000      -0.194753        -5.2995 
  28   0.0000      -0.156872        -4.2687 
  29   0.0000      -0.079785        -2.1711 
  30   0.0000      -0.036843        -1.0026 
  31   0.0000      -0.036843        -1.0026 
  32   0.0000      -0.011268        -0.3066 
  33   0.0000       0.002104         0.0572 
  34   0.0000       0.002104         0.0572 
  35   0.0000       0.061036         1.6609 
  36   0.0000       0.061036         1.6609 
  37   0.0000       0.073468         1.9992 
  38   0.0000       0.092554         2.5185 
  39   0.0000       0.097122         2.6428 
  40   0.0000       0.130058         3.5391 
  41   0.0000       0.165801         4.5117 
  42   0.0000       0.165801         4.5117 
  43   0.0000       0.172988         4.7072 
  44   0.0000       0.202405         5.5077 
  45   0.0000       0.202405         5.5077 
  46   0.0000       0.246728         6.7138 
  47   0.0000       0.246728         6.7138 
  48   0.0000       0.258893         7.0448 
  49   0.0000       0.282811         7.6957 
  50   0.0000       0.353440         9.6176 
  51   0.0000       0.353440         9.6176 
  52   0.0000       0.387992        10.5578 
  53   0.0000       0.387992        10.5578 
  54   0.0000       0.401849        10.9349 
  55   0.0000       0.401850        10.9349 
  56   0.0000       0.427742        11.6394 
  57   0.0000       0.480942        13.0871 
  58   0.0000       0.480944        13.0872 
  59   0.0000       0.495097        13.4723 
  60   0.0000       0.495097        13.4723 
  61   0.0000       0.597214        16.2510 
  62   0.0000       0.669647        18.2220 
  63   0.0000       0.673715        18.3327 
  64   0.0000       0.673715        18.3327 
  65   0.0000       0.736491        20.0409 
  66   0.0000       1.393763        37.9262 
  67   0.0000       1.490557        40.5601 
  68   0.0000       1.490557        40.5601 
  69   0.0000       1.537607        41.8404 
  70   0.0000       1.537607        41.8404 
  71   0.0000       1.550386        42.1881 
  72   0.0000       1.550386        42.1882 
  73   0.0000       1.550467        42.1904 
  74   0.0000       1.550467        42.1904 
  75   0.0000       1.550558        42.1928 
  76   0.0000       1.550558        42.1928 
  77   0.0000       1.556774        42.3620 
  78   0.0000       1.560759        42.4704 
  79   0.0000       1.560759        42.4704 
  80   0.0000       1.563931        42.5567 
  81   0.0000       1.563931        42.5567 
  82   0.0000       1.567764        42.6610 
  83   0.0000       1.567764        42.6610 
  84   0.0000       1.571988        42.7760 
  85   0.0000       1.571990        42.7760 
  86   0.0000       1.584942        43.1285 
  87   0.0000       1.584942        43.1285 
  88   0.0000       1.623330        44.1730 
  89   0.0000       1.634704        44.4826 
  90   0.0000       1.638509        44.5861 
  91   0.0000       1.638509        44.5861 
  92   0.0000       1.703114        46.3441 
  93   0.0000       1.703114        46.3441 
  94   0.0000       1.715240        46.6740 
  95   0.0000       1.830387        49.8074 
  96   0.0000       1.891986        51.4835 
  97   0.0000       1.980083        53.8808 
  98   0.0000       1.980096        53.8811 
  99   0.0000       1.993814        54.2544 
 100   0.0000       1.993824        54.2547 
 101   0.0000       2.009089        54.6701 
 102   0.0000       2.009089        54.6701 
 103   0.0000       2.037547        55.4445 
 104   0.0000       2.037559        55.4448 
 105   0.0000       2.062574        56.1255 
 106   0.0000       2.062574        56.1255 
 107   0.0000       2.102937        57.2238 
 108   0.0000       2.127882        57.9026 
 109   0.0000       2.158102        58.7249 
 110   0.0000       2.158102        58.7249 
 111   0.0000       2.293433        62.4075 
 112   0.0000       2.306877        62.7733 
 113   0.0000       2.633907        71.6723 
 114   0.0000       4.672114       127.1347 
 115   0.0000       4.684269       127.4654 
 116   0.0000       4.684269       127.4654 
 117   0.0000       4.726367       128.6110 
 118   0.0000       4.726813       128.6231 
 119   0.0000       4.736398       128.8839 
 120   0.0000       4.736398       128.8839 
 121   0.0000       4.736472       128.8859 
 122   0.0000       4.736472       128.8859 
 123   0.0000       4.738096       128.9301 
 124   0.0000       4.738490       128.9409 
 125   0.0000       4.748129       129.2032 
 126   0.0000       4.748129       129.2032 
 127   0.0000       4.756737       129.4374 
 128   0.0000       4.757274       129.4520 
 129   0.0000       4.779662       130.0612 
 130   0.0000       4.779662       130.0612 
 131   0.0000       4.839011       131.6762 
 132   0.0000       4.839011       131.6762 
 133   0.0000       4.904585       133.4605 
 134   0.0000       5.058999       137.6624 
 135   0.0000       5.508504       149.8940 
 136   0.0000       5.508504       149.8940 
 137   0.0000       5.509143       149.9114 
 138   0.0000       5.509161       149.9119 
 139   0.0000       5.509161       149.9119 
 140   0.0000       5.509232       149.9138 
 141   0.0000       5.509498       149.9211 
 142   0.0000       5.509586       149.9234 
 143   0.0000       5.511010       149.9622 
 144   0.0000       5.511010       149.9622 
 145   0.0000       5.511011       149.9622 
 146   0.0000       5.511011       149.9622 
 147   0.0000       5.511509       149.9758 
 148   0.0000       5.512596       150.0054 
 149   0.0000       5.512619       150.0060 
 150   0.0000       5.513380       150.0267 
 151   0.0000       5.513380       150.0267 
 152   0.0000       5.513727       150.0361 
 153   0.0000       5.521978       150.2607 
 154   0.0000       5.522116       150.2644 
 155   0.0000       5.524013       150.3160 
 156   0.0000       5.524013       150.3160 
 157   0.0000       5.524444       150.3278 
 158   0.0000       5.524444       150.3278 
 159   0.0000       5.526918       150.3951 
 160   0.0000       5.528019       150.4250 
 161   0.0000       5.543132       150.8363 
 162   0.0000      33.228930       904.2051 
 163   0.0000      33.378364       908.2715 
 164   0.0000      33.768727       918.8938 
 165   0.0000     110.683876      3011.8614 
 166   0.0000     110.730466      3013.1292 
 167   0.0000     110.861331      3016.6902 

                    ********************************
                    * MULLIKEN POPULATION ANALYSIS *
                    ********************************

--------------------------------------------
MULLIKEN ATOMIC CHARGES AND SPIN POPULATIONS
--------------------------------------------
   0 Ag:   -0.033224   -0.090473
   1 Ag:    0.016615    0.545240
   2 Ag:    0.016610    0.545233
Sum of atomic charges         :   -0.0000000
Sum of atomic spin populations:    1.0000000

-----------------------------------------------------
MULLIKEN REDUCED ORBITAL CHARGES AND SPIN POPULATIONS
-----------------------------------------------------
CHARGE
  0 Ags       :     3.068726  s :     3.068726
      pz      :     1.995991  p :     6.030977
      px      :     2.017493
      py      :     2.017493
      dz2     :     1.969335  d :     9.931151
      dxz     :     1.981096
      dyz     :     1.981096
      dx2y2   :     1.999812
      dxy     :     1.999812
      f0      :     0.001147  f :     0.002340
      f+1     :     0.000554
      f-1     :     0.000554
      f+2     :     0.000042
      f-2     :     0.000042
      f+3     :     0.000000
      f-3     :     0.000000
      g0      :     0.000014  g :     0.000030
      g+1     :     0.000007
      g-1     :     0.000007
      g+2     :     0.000001
      g-2     :     0.000001
      g+3     :     0.000000
      g-3     :     0.000000
      g+4     :     0.000000
      g-4     :     0.000000
  1 Ags       :     3.010324  s :     3.010324
      pz      :     2.011809  p :     6.030388
      px      :     2.009290
      py      :     2.009290
      dz2     :     1.959707  d :     9.941434
      dxz     :     1.990828
      dyz     :     1.990828
      dx2y2   :     2.000035
      dxy     :     2.000035
      f0      :     0.000544  f :     0.001225
      f+1     :     0.000303
      f-1     :     0.000303
      f+2     :     0.000037
      f-2     :     0.000037
      f+3     :     0.000000
      f-3     :     0.000000
      g0      :     0.000007  g :     0.000015
      g+1     :     0.000004
      g-1     :     0.000004
      g+2     :     0.000000
      g-2     :     0.000000
      g+3     :     0.000000
      g-3     :     0.000000
      g+4     :     0.000000
      g-4     :     0.000000
  2 Ags       :     3.010327  s :     3.010327
      pz      :     2.011810  p :     6.030390
      px      :     2.009290
      py      :     2.009290
      dz2     :     1.959707  d :     9.941434
      dxz     :     1.990828
      dyz     :     1.990828
      dx2y2   :     2.000035
      dxy     :     2.000035
      f0      :     0.000544  f :     0.001225
      f+1     :     0.000303
      f-1     :     0.000303
      f+2     :     0.000037
      f-2     :     0.000037
      f+3     :     0.000000
      f-3     :     0.000000
      g0      :     0.000007  g :     0.000015
      g+1     :     0.000004
      g-1     :     0.000004
      g+2     :     0.000000
      g-2     :     0.000000
      g+3     :     0.000000
      g-3     :     0.000000
      g+4     :     0.000000
      g-4     :     0.000000

SPIN
  0 Ags       :    -0.066633  s :    -0.066633
      pz      :    -0.017819  p :    -0.017540
      px      :     0.000139
      py      :     0.000139
      dz2     :    -0.000745  d :    -0.006328
      dxz     :    -0.002728
      dyz     :    -0.002728
      dx2y2   :    -0.000063
      dxy     :    -0.000063
      f0      :     0.000020  f :     0.000027
      f+1     :     0.000003
      f-1     :     0.000003
      f+2     :     0.000001
      f-2     :     0.000001
      f+3     :    -0.000000
      f-3     :    -0.000000
      g0      :    -0.000000  g :     0.000000
      g+1     :     0.000000
      g-1     :     0.000000
      g+2     :     0.000000
      g-2     :     0.000000
      g+3     :    -0.000000
      g-3     :    -0.000000
      g+4     :    -0.000000
      g-4     :     0.000000
  1 Ags       :     0.541750  s :     0.541750
      pz      :    -0.001702  p :     0.000317
      px      :     0.001009
      py      :     0.001009
      dz2     :     0.002540  d :     0.003158
      dxz     :     0.000278
      dyz     :     0.000278
      dx2y2   :     0.000030
      dxy     :     0.000030
      f0      :     0.000004  f :     0.000016
      f+1     :     0.000005
      f-1     :     0.000005
      f+2     :     0.000001
      f-2     :     0.000001
      f+3     :     0.000000
      f-3     :     0.000000
      g0      :    -0.000000  g :    -0.000000
      g+1     :    -0.000000
      g-1     :    -0.000000
      g+2     :    -0.000000
      g-2     :    -0.000000
      g+3     :    -0.000000
      g-3     :    -0.000000
      g+4     :     0.000000
      g-4     :    -0.000000
  2 Ags       :     0.541744  s :     0.541744
      pz      :    -0.001703  p :     0.000316
      px      :     0.001009
      py      :     0.001009
      dz2     :     0.002540  d :     0.003158
      dxz     :     0.000278
      dyz     :     0.000278
      dx2y2   :     0.000030
      dxy     :     0.000030
      f0      :     0.000004  f :     0.000016
      f+1     :     0.000005
      f-1     :     0.000005
      f+2     :     0.000001
      f-2     :     0.000001
      f+3     :     0.000000
      f-3     :     0.000000
      g0      :    -0.000000  g :    -0.000000
      g+1     :    -0.000000
      g-1     :    -0.000000
      g+2     :    -0.000000
      g-2     :    -0.000000
      g+3     :    -0.000000
      g-3     :    -0.000000
      g+4     :     0.000000
      g-4     :    -0.000000


                     *******************************
                     * LOEWDIN POPULATION ANALYSIS *
                     *******************************

-------------------------------------------
LOEWDIN ATOMIC CHARGES AND SPIN POPULATIONS
-------------------------------------------
   0 Ag:   -0.177480    0.296872
   1 Ag:    0.088740    0.351564
   2 Ag:    0.088740    0.351564

----------------------------------------------------
LOEWDIN REDUCED ORBITAL CHARGES AND SPIN POPULATIONS
----------------------------------------------------
CHARGE
  0 Ags       :     2.829755  s :     2.829755
      pz      :     2.364696  p :     6.402752
      px      :     2.019028
      py      :     2.019028
      dz2     :     1.989614  d :     9.941408
      dxz     :     1.976072
      dyz     :     1.976072
      dx2y2   :     1.999825
      dxy     :     1.999825
      f0      :     0.001940  f :     0.003528
      f+1     :     0.000741
      f-1     :     0.000741
      f+2     :     0.000053
      f-2     :     0.000053
      f+3     :     0.000000
      f-3     :     0.000000
      g0      :     0.000015  g :     0.000037
      g+1     :     0.000010
      g-1     :     0.000010
      g+2     :     0.000001
      g-2     :     0.000001
      g+3     :     0.000000
      g-3     :     0.000000
      g+4     :     0.000000
      g-4     :     0.000000
  1 Ags       :     2.834230  s :     2.834230
      pz      :     2.089464  p :     6.113596
      px      :     2.012066
      py      :     2.012066
      dz2     :     1.982551  d :     9.961714
      dxz     :     1.989565
      dyz     :     1.989565
      dx2y2   :     2.000016
      dxy     :     2.000016
      f0      :     0.000736  f :     0.001699
      f+1     :     0.000438
      f-1     :     0.000438
      f+2     :     0.000043
      f-2     :     0.000043
      f+3     :     0.000000
      f-3     :     0.000000
      g0      :     0.000009  g :     0.000020
      g+1     :     0.000005
      g-1     :     0.000005
      g+2     :     0.000001
      g-2     :     0.000001
      g+3     :     0.000000
      g-3     :     0.000000
      g+4     :     0.000000
      g-4     :     0.000000
  2 Ags       :     2.834231  s :     2.834231
      pz      :     2.089464  p :     6.113596
      px      :     2.012066
      py      :     2.012066
      dz2     :     1.982551  d :     9.961714
      dxz     :     1.989565
      dyz     :     1.989565
      dx2y2   :     2.000016
      dxy     :     2.000016
      f0      :     0.000736  f :     0.001699
      f+1     :     0.000438
      f-1     :     0.000438
      f+2     :     0.000043
      f-2     :     0.000043
      f+3     :     0.000000
      f-3     :     0.000000
      g0      :     0.000009  g :     0.000020
      g+1     :     0.000005
      g-1     :     0.000005
      g+2     :     0.000001
      g-2     :     0.000001
      g+3     :     0.000000
      g-3     :     0.000000
      g+4     :     0.000000
      g-4     :     0.000000

SPIN
  0 Ags       :    -0.026722  s :    -0.026722
      pz      :     0.323343  p :     0.324338
      px      :     0.000497
      py      :     0.000497
      dz2     :     0.002381  d :    -0.001086
      dxz     :    -0.001739
      dyz     :    -0.001739
      dx2y2   :     0.000005
      dxy     :     0.000005
      f0      :     0.000295  f :     0.000343
      f+1     :     0.000021
      f-1     :     0.000021
      f+2     :     0.000002
      f-2     :     0.000002
      f+3     :    -0.000000
      f-3     :    -0.000000
      g0      :    -0.000000  g :     0.000001
      g+1     :     0.000000
      g-1     :     0.000000
      g+2     :     0.000000
      g-2     :     0.000000
      g+3     :    -0.000000
      g-3     :    -0.000000
      g+4     :    -0.000000
      g-4     :     0.000000
  1 Ags       :     0.348513  s :     0.348513
      pz      :    -0.000347  p :     0.001480
      px      :     0.000914
      py      :     0.000914
      dz2     :     0.002202  d :     0.001576
      dxz     :    -0.000309
      dyz     :    -0.000309
      dx2y2   :    -0.000004
      dxy     :    -0.000004
      f0      :    -0.000016  f :    -0.000005
      f+1     :     0.000005
      f-1     :     0.000005
      f+2     :     0.000001
      f-2     :     0.000001
      f+3     :     0.000000
      f-3     :     0.000000
      g0      :    -0.000000  g :    -0.000000
      g+1     :    -0.000000
      g-1     :    -0.000000
      g+2     :    -0.000000
      g-2     :    -0.000000
      g+3     :    -0.000000
      g-3     :    -0.000000
      g+4     :     0.000000
      g-4     :    -0.000000
  2 Ags       :     0.348512  s :     0.348512
      pz      :    -0.000347  p :     0.001480
      px      :     0.000914
      py      :     0.000914
      dz2     :     0.002202  d :     0.001576
      dxz     :    -0.000309
      dyz     :    -0.000309
      dx2y2   :    -0.000004
      dxy     :    -0.000004
      f0      :    -0.000016  f :    -0.000005
      f+1     :     0.000005
      f-1     :     0.000005
      f+2     :     0.000001
      f-2     :     0.000001
      f+3     :     0.000000
      f-3     :     0.000000
      g0      :    -0.000000  g :    -0.000000
      g+1     :    -0.000000
      g-1     :    -0.000000
      g+2     :    -0.000000
      g-2     :    -0.000000
      g+3     :    -0.000000
      g-3     :    -0.000000
      g+4     :     0.000000
      g-4     :    -0.000000


                      *****************************
                      * MAYER POPULATION ANALYSIS *
                      *****************************

  NA   - Mulliken gross atomic population
  ZA   - Total nuclear charge
  QA   - Mulliken gross atomic charge
  VA   - Mayer's total valence
  BVA  - Mayer's bonded valence
  FA   - Mayer's free valence

  ATOM       NA         ZA         QA         VA         BVA        FA
  0 Ag    19.0332    19.0000    -0.0332     1.1652     1.1605     0.0048
  1 Ag    18.9834    19.0000     0.0166     1.1086     0.8121     0.2965
  2 Ag    18.9834    19.0000     0.0166     1.1086     0.8121     0.2965

  Mayer bond orders larger than 0.100000
B(  0-Ag,  1-Ag) :   0.5802 B(  0-Ag,  2-Ag) :   0.5802 B(  1-Ag,  2-Ag) :   0.2318 


-------
TIMINGS
-------

Total SCF time: 0 days 0 hours 0 min 3 sec 

Total time                  ....       3.876 sec
Sum of individual times     ....       3.740 sec  ( 96.5%)

Fock matrix formation       ....       1.822 sec  ( 47.0%)
  Split-RI-J                ....       1.079 sec  ( 59.2% of F)
  XC integration            ....       0.672 sec  ( 36.9% of F)
    Basis function eval.    ....       0.040 sec  (  5.9% of XC)
    Density eval.           ....       0.092 sec  ( 13.7% of XC)
    XC-Functional eval.     ....       0.033 sec  (  4.9% of XC)
    XC-Potential eval.      ....       0.203 sec  ( 30.2% of XC)
Diagonalization             ....       0.090 sec  (  2.3%)
Density matrix formation    ....       0.018 sec  (  0.5%)
Population analysis         ....       0.008 sec  (  0.2%)
Initial guess               ....       1.424 sec  ( 36.8%)
Orbital Transformation      ....       0.000 sec  (  0.0%)
Orbital Orthonormalization  ....       0.000 sec  (  0.0%)
DIIS solution               ....       0.031 sec  (  0.8%)
Grid generation             ....       0.346 sec  (  8.9%)


-------------------------------------------------------------------------------
                          DFT DISPERSION CORRECTION                            
                                                                               
                              DFTD3 V3.1  Rev 1                                
                          USING Becke-Johnson damping                          
-------------------------------------------------------------------------------
The TPSS functional is recognized
Active option DFTDOPT                   ...         4   

molecular C6(AA) [au] = 2437.942597 


            DFT-D V3
 parameters
 s6 scaling factor         :     1.0000 
 a1 scaling factor         :     0.4535 
 s8 scaling factor         :     1.9435 
 a2 scaling factor         :     4.4752 
 ad hoc parameters k1-k3   :    16.0000     1.3333    -4.0000 

 Edisp/kcal,au: -2.796581126796  -0.004456635229 
 E6   /kcal   :  -0.861128458 
 E8   /kcal   :  -1.935452669 
 % E8         :  69.207814146 

-------------------------   ----------------
Dispersion correction           -0.004456635
-------------------------   ----------------


-------------------------   --------------------
FINAL SINGLE POINT ENERGY      -440.835218098715
-------------------------   --------------------


                            ***************************************
                            *     ORCA property calculations      *
                            ***************************************

                                    ---------------------
                                    Active property flags
                                    ---------------------
   (+) Dipole Moment


------------------------------------------------------------------------------
                       ORCA ELECTRIC PROPERTIES CALCULATION
------------------------------------------------------------------------------

Dipole Moment Calculation                       ... on
Quadrupole Moment Calculation                   ... off
Polarizability Calculation                      ... off
GBWName                                         ... Ag03N0_LIN.gbw
Electron density file                           ... Ag03N0_LIN.scfp
The origin for moment calculation is the CENTER OF MASS  = ( 0.000000,  0.000000  0.000000)

-------------
DIPOLE MOMENT
-------------
                                X             Y             Z
Electronic contribution:     -0.00000       0.00000       0.00000
Nuclear contribution   :      0.00000       0.00000       0.00000
                        -----------------------------------------
Total Dipole Moment    :     -0.00000       0.00000       0.00000
                        -----------------------------------------
Magnitude (a.u.)       :      0.00000
Magnitude (Debye)      :      0.00000



--------------------
Rotational spectrum 
--------------------
 
Rotational constants in cm-1:     0.000000     0.011626     0.011626 
Rotational constants in MHz :     0.000000   348.528806   348.528806 

 Dipole components along the rotational axes: 
x,y,z [a.u.] :     0.000000     0.000000    -0.000000 
x,y,z [Debye]:     0.000001     0.000001    -0.000000 

 

Timings for individual modules:

Sum of individual times         ...        5.100 sec (=   0.085 min)
GTO integral calculation        ...        0.890 sec (=   0.015 min)  17.5 %
SCF iterations                  ...        4.210 sec (=   0.070 min)  82.5 %
                             ****ORCA TERMINATED NORMALLY****
TOTAL RUN TIME: 0 days 0 hours 0 minutes 5 seconds 584 msec
