
                                 *****************
                                 * O   R   C   A *
                                 *****************

           --- An Ab Initio, DFT and Semiempirical electronic structure package ---

                  #######################################################
                  #                        -***-                        #
                  #          Department of theory and spectroscopy      #
                  #               Directorship: Frank Neese             #
                  #        Max Planck Institute fuer Kohlenforschung    #
                  #                Kaiser Wilhelm Platz 1               #
                  #                 D-45470 Muelheim/Ruhr               #
                  #                      Germany                        #
                  #                                                     #
                  #                  All rights reserved                #
                  #                        -***-                        #
                  #######################################################


                         Program Version 4.2.0 -  RELEASE  -


 With contributions from (in alphabetic order):
   Daniel Aravena         : Magnetic Suceptibility
   Michael Atanasov       : Ab Initio Ligand Field Theory (pilot matlab implementation)
   Alexander A. Auer      : GIAO ZORA, VPT2
   Ute Becker             : Parallelization
   Giovanni Bistoni       : ED, misc. LED, open-shell LED, HFLED
   Martin Brehm           : Molecular dynamics
   Dmytro Bykov           : SCF Hessian
   Vijay G. Chilkuri      : MRCI spin determinant printing, contributions to CSF-ICE
   Dipayan Datta          : RHF DLPNO-CCSD density
   Achintya Kumar Dutta   : EOM-CC, STEOM-CC
   Dmitry Ganyushin       : Spin-Orbit,Spin-Spin,Magnetic field MRCI
   Miquel Garcia          : C-PCM Hessian, Gaussian charge scheme
   Yang Guo               : DLPNO-NEVPT2, CIM, IAO-localization
   Andreas Hansen         : Spin unrestricted coupled pair/coupled cluster methods
   Benjamin Helmich-Paris : CASSCF linear response (MC-RPA)
   Lee Huntington         : MR-EOM, pCC
   Robert Izsak           : Overlap fitted RIJCOSX, COSX-SCS-MP3, EOM
   Christian Kollmar      : KDIIS, OOCD, Brueckner-CCSD(T), CCSD density
   Simone Kossmann        : Meta GGA functionals, TD-DFT gradient, OOMP2, MP2 Hessian
   Martin Krupicka        : AUTO-CI
   Lucas Lang             : DCDCAS
   Dagmar Lenk            : GEPOL surface, SMD
   Dimitrios Liakos       : Extrapolation schemes; Compound Job, initial MDCI parallelization
   Dimitrios Manganas     : Further ROCIS development; embedding schemes
   Dimitrios Pantazis     : SARC Basis sets
   Taras Petrenko         : DFT Hessian,TD-DFT gradient, ASA, ECA, R-Raman, ABS, FL, XAS/XES, NRVS
   Peter Pinski           : DLPNO-MP2, DLPNO-MP2 Gradient
   Christoph Reimann      : Effective Core Potentials
   Marius Retegan         : Local ZFS, SOC
   Christoph Riplinger    : Optimizer, TS searches, QM/MM, DLPNO-CCSD(T), (RO)-DLPNO pert. Triples
   Tobias Risthaus        : Range-separated hybrids, TD-DFT gradient, RPA, STAB
   Michael Roemelt        : Original ROCIS implementation
   Masaaki Saitow         : Open-shell DLPNO-CCSD energy and density
   Barbara Sandhoefer     : DKH picture change effects
   Avijit Sen             : IP-ROCIS
   Kantharuban Sivalingam : CASSCF convergence, NEVPT2, FIC-MRCI
   Bernardo de Souza      : ESD, SOC TD-DFT
   Georgi Stoychev        : AutoAux, RI-MP2 NMR
   Willem Van den Heuvel  : Paramagnetic NMR
   Boris Wezisla          : Elementary symmetry handling
   Frank Wennmohs         : Technical directorship


 We gratefully acknowledge several colleagues who have allowed us to
 interface, adapt or use parts of their codes:
   Stefan Grimme, W. Hujo, H. Kruse,             : VdW corrections, initial TS optimization,
                  C. Bannwarth                     DFT functionals, gCP, sTDA/sTD-DF
   Ed Valeev, F. Pavosevic, A. Kumar             : LibInt (2-el integral package), F12 methods
   Garnet Chan, S. Sharma, J. Yang, R. Olivares  : DMRG
   Ulf Ekstrom                                   : XCFun DFT Library
   Mihaly Kallay                                 : mrcc  (arbitrary order and MRCC methods)
   Andreas Klamt, Michael Diedenhofen            : otool_cosmo (COSMO solvation model)
   Jiri Pittner, Ondrej Demel                    : Mk-CCSD
   Frank Weinhold                                : gennbo (NPA and NBO analysis)
   Christopher J. Cramer and Donald G. Truhlar   : smd solvation model
   Lars Goerigk                                  : TD-DFT with DH, B97 family of functionals
   V. Asgeirsson, H. Jonsson                     : NEB implementation
   FAccTs GmbH                                   : IRC, NEB, NEB-TS, Multilevel, MM, QM/MM, CI optimization
   S Lehtola, MJT Oliveira, MAL Marques          : LibXC Library


 Your calculation uses the libint2 library for the computation of 2-el integrals
 For citations please refer to: http://libint.valeyev.net

 Your ORCA version has been built with support for libXC version: 4.2.3
 For citations please refer to: https://tddft.org/programs/libxc/

 This ORCA versions uses:
   CBLAS   interface :  Fast vector & matrix operations
   LAPACKE interface :  Fast linear algebra routines
   SCALAPACK package :  Parallel linear algebra routines


Your calculation utilizes the atom-pairwise dispersion correction
with the Becke-Johnson damping scheme (D3BJ)
Cite in your paper:
S.Grimme, S.Ehrlich, L.Goerigk, J Comput Chem, (2011), 32, 1456–1465 
S.Grimme, J.Antony, S.Ehrlich and H.Krieg, J.Chem.Phys., 132, (2010), 154104 
   

----- Orbital basis set information -----
Your calculation utilizes the basis: def2-TZVPPD
   F. Weigend and R. Ahlrichs, Phys. Chem. Chem. Phys. 7, 3297 (2005).
   D. Rappoport and F. Furche, J. Chem. Phys. 133 134105 (2010).

----- AuxJ basis set information -----
Your calculation utilizes the auxiliary basis: def2/J
   F. Weigend, Phys. Chem. Chem. Phys. 8, 1057 (2006).

cite the ECPs for Ag [Def2-ECP] as follows:
Ce-Yb(ecp-28): M. Dolg, H. Stoll, H.Preuss, J. Chem. Phys., 1989, 90, 1730-1734.
Y-Cd(ecp-28), Hf-Hg(ecp-46): D. Andrae,U. Haeussermann, M. Dolg, H. Stoll, H. Preuss, Theor. Chim. Acta, 1990, 77, 123-141.
In-Sb(ecp-28), Tl-Bi(ecp-46): B. Metz, H. Stoll, M. Dolg, J. Chem. Phys., 2000, 113, 2563-2569.
Te-Xe(ecp-28), Po-Rn(ecp-46): K. A. Peterson, D. Figgen, E. Goll, H. Stoll, M. Dolg, J. Chem. Phys., 2003, 119, 11113-11123.
Rb(ecp-28), Cs(ecp-46): T. Leininger, A. Nicklass, W. Kuechle, H. Stoll, M. Dolg, A. Bergner, Chem. Phys. Lett., 1996, 255, 274-280.
Sr(ecp-28), Ba(ecp-46): M. Kaupp, P. V. Schleyer, H. Stoll and H. Preuss, J. Chem. Phys., 1991, 94, 1360-1366.
La(ecp-46): M. Dolg, H. Stoll, A. Savin, H. Preuss, Theor. Chim. Acta, 1989, 75, 173-194.
Lu(ecp-28): X. Cao, M. Dolg, J. Chem. Phys., 2001, 115, 7348-7355.

ECP parameters for Ag [Def2-ECP] have been obtained from:
TURBOMOLE (7.0.2)

================================================================================
                                        WARNINGS
                       Please study these warnings very carefully!
================================================================================


WARNING: your system is open-shell and RHF/RKS was chosen
  ===> : WILL SWITCH to UHF/UKS


INFO   : the flag for use of LIBINT has been found!

================================================================================
                                       INPUT FILE
================================================================================
NAME = Ag03N0_D3H.in
|  1> #
|  2> # Ag03N0_D3H TPSS-D3BJ/Def2-TZVPPD
|  3> #
|  4> ! tpss d3bj def2-tzvppd def2/j grid4 nofinalgrid slowconv
|  5> 
|  6> *xyz 0 2
|  7> Ag       0.000000    1.533951   -0.000000 
|  8> Ag       1.328441   -0.766976    0.000000 
|  9> Ag      -1.328441   -0.766976   -0.000000 
| 10> *
| 11> 
| 12> %maxcore 5000
| 13> 
| 14> %pal
| 15> nprocs = 24
| 16> end
| 17> 
| 18> 
| 19>                          ****END OF INPUT****
================================================================================

                       ****************************
                       * Single Point Calculation *
                       ****************************

---------------------------------
CARTESIAN COORDINATES (ANGSTROEM)
---------------------------------
  Ag     0.000000    1.533951   -0.000000
  Ag     1.328441   -0.766976    0.000000
  Ag    -1.328441   -0.766976   -0.000000

----------------------------
CARTESIAN COORDINATES (A.U.)
----------------------------
  NO LB      ZA    FRAG     MASS         X           Y           Z
   0 Ag   19.0000*   0   107.870    0.000000    2.898747   -0.000000
   1 Ag   19.0000*   0   107.870    2.510390   -1.449375    0.000000
   2 Ag   19.0000*   0   107.870   -2.510390   -1.449375   -0.000000
* core charge reduced due to ECP

--------------------------------
INTERNAL COORDINATES (ANGSTROEM)
--------------------------------
 Ag     0   0   0     0.000000000000     0.00000000     0.00000000
 Ag     1   0   0     2.656881734254     0.00000000     0.00000000
 Ag     1   2   0     2.656881734254    60.00000662     0.00000000

---------------------------
INTERNAL COORDINATES (A.U.)
---------------------------
 Ag     0   0   0     0.000000000000     0.00000000     0.00000000
 Ag     1   0   0     5.020778847957     0.00000000     0.00000000
 Ag     1   2   0     5.020778847957    60.00000662     0.00000000

---------------------
BASIS SET INFORMATION
---------------------
There are 1 groups of distinct atoms

 Group   1 Type Ag  : 7s7p6d2f1g contracted to 6s4p3d2f1g pattern {211111/4111/411/11/1}

Atom   0Ag   basis set group =>   1
Atom   1Ag   basis set group =>   1
Atom   2Ag   basis set group =>   1
---------------------------------
AUXILIARY/J BASIS SET INFORMATION
---------------------------------
There are 1 groups of distinct atoms

 Group   1 Type Ag  : 11s5p5d3f3g contracted to 8s5p5d2f3g pattern {41111111/11111/11111/21/111}

Atom   0Ag   basis set group =>   1
Atom   1Ag   basis set group =>   1
Atom   2Ag   basis set group =>   1
-------------------------
ECP PARAMETER INFORMATION
-------------------------

 Group 1, Type Ag ECP Def2-ECP (replacing 28 core electrons, lmax=3)

Atom   0Ag   ECP group =>   1
Atom   1Ag   ECP group =>   1
Atom   2Ag   ECP group =>   1



           ************************************************************
           *        Program running with 24 parallel MPI-processes    *
           *              working on a common directory               *
           ************************************************************
------------------------------------------------------------------------------
                           ORCA GTO INTEGRAL CALCULATION
                           -- RI-GTO INTEGRALS CHOSEN --
------------------------------------------------------------------------------

                         BASIS SET STATISTICS AND STARTUP INFO

Gaussian basis set:
 # of primitive gaussian shells          ...   69
 # of primitive gaussian functions       ...  243
 # of contracted shells                  ...   48
 # of contracted basis functions         ...  168
 Highest angular momentum                ...    4
 Maximum contraction depth               ...    4
Auxiliary gaussian basis set:
 # of primitive gaussian shells          ...   81
 # of primitive gaussian functions       ...  297
 # of contracted shells                  ...   69
 # of contracted aux-basis functions     ...  267
 Highest angular momentum                ...    4
 Maximum contraction depth               ...    4
Ratio of auxiliary to basis functions    ...  1.59
Integral package used                  ... LIBINT
 One Electron integrals                  
   ECP integrals                         ... done
 Ordering auxiliary basis shells         ... done
 Integral threshhold             Thresh  ...  1.000e-10
 Primitive cut-off               TCut    ...  1.000e-11
 Pre-screening matrix                    ... done
 Shell pair data                         ... 
 Ordering of the shell pairs             ... done (   0.000 sec) 1134 of 1176 pairs
 Determination of significant pairs      ... done (   0.000 sec)
 Creation of shell pair data             ... done (   0.000 sec)
 Storage of shell pair data              ... done (   0.011 sec)
 Shell pair data done in (   0.011 sec)
 Computing two index integrals           ... done
 Cholesky decomposition of the V-matrix  ... done


Timings:
 Total evaluation time                   ...   0.595 sec (  0.010 min)
 One electron matrix time                ...   0.339 sec (  0.006 min) = 56.9%
 Schwartz matrix evaluation time         ...   0.141 sec (  0.002 min) = 23.6%
 Two index repulsion integral time       ...   0.001 sec (  0.000 min) =  0.2%
 Cholesky decomposition of V             ...   0.073 sec (  0.001 min) = 12.3%
 Three index repulsion integral time     ...   0.000 sec (  0.000 min) =  0.0%



           ************************************************************
           *        Program running with 24 parallel MPI-processes    *
           *              working on a common directory               *
           ************************************************************
-------------------------------------------------------------------------------
                                 ORCA SCF
-------------------------------------------------------------------------------

------------
SCF SETTINGS
------------
Hamiltonian:
 Density Functional     Method          .... DFT(GTOs)
 Exchange Functional    Exchange        .... TPSS
 Correlation Functional Correlation     .... TPSS
 LDA part of GGA corr.  LDAOpt          .... PW91-LDA
 Gradients option       PostSCFGGA      .... off
   Density functional embedding theory  .... OFF
   NL short-range parameter             ....  5.000000
 RI-approximation to the Coulomb term is turned on
   Number of auxiliary basis functions  .... 267


General Settings:
 Integral files         IntName         .... Ag03N0_D3H
 Hartree-Fock type      HFTyp           .... UHF
 Total Charge           Charge          ....    0
 Multiplicity           Mult            ....    2
 Number of Electrons    NEL             ....   57
 Basis Dimension        Dim             ....  168
 Nuclear Repulsion      ENuc            ....    215.7035784065 Eh

Convergence Acceleration:
 DIIS                   CNVDIIS         .... on
   Start iteration      DIISMaxIt       ....     0
   Startup error        DIISStart       ....  0.200000
   # of expansion vecs  DIISMaxEq       ....     5
   Bias factor          DIISBfac        ....   1.050
   Max. coefficient     DIISMaxC        ....  10.000
 Newton-Raphson         CNVNR           .... off
 SOSCF                  CNVSOSCF        .... off
 Level Shifting         CNVShift        .... on
   Level shift para.    LevelShift      ....    0.2500
   Turn off err/grad.   ShiftErr        ....    0.0000
 Zerner damping         CNVZerner       .... off
 Static damping         CNVDamp         .... on
   Fraction old density DampFac         ....    0.8500
   Max. Damping (<1)    DampMax         ....    0.9800
   Min. Damping (>=0)   DampMin         ....    0.0000
   Turn off err/grad.   DampErr         ....    0.0300
 Fernandez-Rico         CNVRico         .... off

SCF Procedure:
 Maximum # iterations   MaxIter         ....   125
 SCF integral mode      SCFMode         .... Direct
   Integral package                     .... LIBINT
 Reset frequency        DirectResetFreq ....    20
 Integral Threshold     Thresh          ....  1.000e-10 Eh
 Primitive CutOff       TCut            ....  1.000e-11 Eh

Convergence Tolerance:
 Convergence Check Mode ConvCheckMode   .... Total+1el-Energy
 Convergence forced     ConvForced      .... 0
 Energy Change          TolE            ....  1.000e-06 Eh
 1-El. energy change                    ....  1.000e-03 Eh
 DIIS Error             TolErr          ....  1.000e-06


Diagonalization of the overlap matrix:
Smallest eigenvalue                        ... 2.935e-03
Time for diagonalization                   ...    0.007 sec
Threshold for overlap eigenvalues          ... 1.000e-08
Number of eigenvalues below threshold      ... 0
Time for construction of square roots      ...    0.003 sec
Total time needed                          ...    0.011 sec

-------------------
DFT GRID GENERATION
-------------------

General Integration Accuracy     IntAcc      ...  4.670
Radial Grid Type                 RadialGrid  ... Gauss-Chebyshev
Angular Grid (max. acc.)         AngularGrid ... Lebedev-302
Angular grid pruning method      GridPruning ... 3 (G Style)
Weight generation scheme         WeightScheme... Becke
Basis function cutoff            BFCut       ...    1.0000e-10
Integration weight cutoff        WCut        ...    1.0000e-14
Grids for H and He will be reduced by one unit

# of grid points (after initial pruning)     ...  31974 (   0.0 sec)
# of grid points (after weights+screening)   ...  31838 (   0.0 sec)
nearest neighbour list constructed           ...    0.0 sec
Grid point re-assignment to atoms done       ...    0.0 sec
Grid point division into batches done        ...    0.3 sec
Reduced shell lists constructed in    0.3 sec

Total number of grid points                  ...    31838
Total number of batches                      ...      500
Average number of points per batch           ...       63
Average number of grid points per atom       ...    10613
Average number of shells per batch           ...     4.23 ( 8.81%)
Average number of basis functions per batch  ...     8.95 ( 5.33%)
Average number of large shells per batch     ...     2.82 (66.67%)
Average number of large basis fcns per batch ...     5.91 (65.99%)
Maximum spatial batch extension              ...  27.02, 24.03, 31.14 au
Average spatial batch extension              ...   0.75,  0.64,  0.72 au

Time for grid setup =    0.330 sec

------------------------------
INITIAL GUESS: MODEL POTENTIAL
------------------------------
Loading Hartree-Fock densities                     ... done
  calling /sw/apps/orca/orca_4_2_0_linux_x86-64_openmpi314/orca Ag03N0_D3H_atom47.inp > Ag03N0_D3H_atom47.out in order to generate an atomic fitting density for atom 0 (Ag with ECP) on-the-fly... 
    atom 0 (Ag), assumed electronic state with S=2: 1s2 2s2 2p6 3s2 3p6 4s2 3d10 4p6 5s2 4d9           ... done
Calculating cut-offs                               ... done
Setting up the integral package                    ... done
Initializing the effective Hamiltonian             ... done
Starting the Coulomb interaction                   ... done (   0.0 sec)
Reading the grid                                   ... done
Mapping shells                                     ... done
Starting the XC term evaluation                    ... done (   0.0 sec)
  promolecular density results
     # of electrons  =    141.001589608
     EX              =   -430.310478893
     EC              =     -7.472800308
     EX+EC           =   -437.783279201
Transforming the Hamiltonian                       ... done (   0.0 sec)
Diagonalizing the Hamiltonian                      ... done (   0.0 sec)
Back transforming the eigenvectors                 ... done (   0.0 sec)
Now organizing SCF variables                       ... done
                      ------------------
                      INITIAL GUESS DONE (   1.7 sec)
                      ------------------
--------------
SCF ITERATIONS
--------------
ITER       Energy         Delta-E        Max-DP      RMS-DP      [F,P]     Damp
               ***  Starting incremental Fock matrix formation  ***
  0   -440.5067758918   0.000000000000 0.05307158  0.00084845  0.5132609 0.8500
  1   -440.6110363929  -0.104260501094 0.05858174  0.00087329  0.4218012 0.8500
                               ***Turning on DIIS***
  2   -440.6653496270  -0.054313234130 0.04627468  0.00062591  0.3457930 0.8500
  3   -440.6941080926  -0.028758465599 0.02280090  0.00025791  0.2859064 0.8500
  4   -440.7157503976  -0.021642305026 0.00928919  0.00014367  0.2422363 0.8500
  5   -440.7325091435  -0.016758745866 0.00831393  0.00012690  0.2070000 0.8500
  6   -440.7469902569  -0.014481113420 0.00669842  0.00011418  0.1767559 0.8500
  7   -440.7597306167  -0.012740359741 0.00877374  0.00011111  0.1505175 0.8500
  8   -440.7710076158  -0.011276999135 0.00810391  0.00009003  0.1271871 0.8500
  9   -440.7803643594  -0.009356743644 0.00618840  0.00007105  0.1077124 0.8500
 10   -440.7881315909  -0.007767231414 0.00483028  0.00005977  0.0915768 0.8500
 11   -440.7946753286  -0.006543737787 0.00421453  0.00005222  0.0779725 0.8500
 12   -440.8002491335  -0.005573804833 0.00390311  0.00004594  0.0663177 0.8500
 13   -440.8049980057  -0.004748872196 0.00339999  0.00003893  0.0562887 0.8500
 14   -440.8090200626  -0.004022056882 0.00278997  0.00003234  0.0477623 0.8500
 15   -440.8124216270  -0.003401564431 0.00230038  0.00002726  0.0405711 0.8500
 16   -440.8153040457  -0.002882418692 0.00197110  0.00002336  0.0344899 0.8500
 17   -440.8177513982  -0.002447352520 0.01145940  0.00013377  0.0293164 0.0000
 18   -440.8315587703  -0.013807372082 0.00039124  0.00000645  0.0004905 0.0000
 19   -440.8315587167   0.000000053624 0.00020383  0.00000268  0.0005717 0.0000
               *** Restarting incremental Fock matrix formation ***
                                   *** Resetting DIIS ***
 20   -440.8315592347  -0.000000518024 0.00018678  0.00000200  0.0001072 0.0000
 21   -440.8315592140   0.000000020662 0.00004376  0.00000072  0.0001343 0.0000
 22   -440.8315592671  -0.000000053073 0.00002857  0.00000025  0.0000349 0.0000
                 **** Energy Check signals convergence ****

               *****************************************************
               *                     SUCCESS                       *
               *           SCF CONVERGED AFTER  23 CYCLES          *
               *****************************************************


----------------
TOTAL SCF ENERGY
----------------

Total Energy       :         -440.83155927 Eh          -11995.63657 eV

Components:
Nuclear Repulsion  :          215.70357841 Eh            5869.59277 eV
Electronic Energy  :         -656.53513768 Eh          -17865.22935 eV
One Electron Energy:        -1213.94296555 Eh          -33033.06746 eV
Two Electron Energy:          557.40782787 Eh           15167.83811 eV

Virial components:
Potential Energy   :         -609.25482071 Eh          -16578.66651 eV
Kinetic Energy     :          168.42326144 Eh            4583.02994 eV
Virial Ratio       :            3.61740306


DFT components:
N(Alpha)           :       28.999984644739 electrons
N(Beta)            :       27.999983583871 electrons
N(Total)           :       56.999968228610 electrons
E(X)               :      -39.725844233425 Eh       
E(C)               :       -2.479804134040 Eh       
E(XC)              :      -42.205648367465 Eh       
DFET-embed. en.    :        0.000000000000 Eh       

---------------
SCF CONVERGENCE
---------------

  Last Energy change         ...   -1.6892e-09  Tolerance :   1.0000e-06
  Last MAX-Density change    ...    9.2865e-06  Tolerance :   1.0000e-05
  Last RMS-Density change    ...    9.6105e-08  Tolerance :   1.0000e-06
  Last DIIS Error            ...    8.0991e-06  Tolerance :   1.0000e-06

             **** THE GBW FILE WAS UPDATED (Ag03N0_D3H.gbw) ****
             **** DENSITY FILE WAS UPDATED (Ag03N0_D3H.scfp) ****
             **** ENERGY FILE WAS UPDATED (Ag03N0_D3H.en.tmp) ****
----------------------
UHF SPIN CONTAMINATION
----------------------

Warning: in a DFT calculation there is little theoretical justification to 
         calculate <S**2> as in Hartree-Fock theory. We will do it anyways
         but you should keep in mind that the values have only limited relevance

Expectation value of <S**2>     :     0.755125
Ideal value S*(S+1) for S=0.5   :     0.750000
Deviation                       :     0.005125

             **** THE GBW FILE WAS UPDATED (Ag03N0_D3H.gbw) ****
             **** DENSITY FILE WAS UPDATED (Ag03N0_D3H.scfp) ****
----------------
ORBITAL ENERGIES
----------------
                 SPIN UP ORBITALS
  NO   OCC          E(Eh)            E(eV) 
   0   1.0000      -3.601043       -97.9894 
   1   1.0000      -3.600727       -97.9808 
   2   1.0000      -3.584051       -97.5270 
   3   1.0000      -2.227398       -60.6106 
   4   1.0000      -2.223820       -60.5132 
   5   1.0000      -2.222889       -60.4879 
   6   1.0000      -2.222109       -60.4667 
   7   1.0000      -2.221488       -60.4497 
   8   1.0000      -2.221138       -60.4402 
   9   1.0000      -2.207373       -60.0657 
  10   1.0000      -2.206525       -60.0426 
  11   1.0000      -2.202922       -59.9446 
  12   1.0000      -0.328223        -8.9314 
  13   1.0000      -0.311414        -8.4740 
  14   1.0000      -0.304195        -8.2776 
  15   1.0000      -0.304105        -8.2751 
  16   1.0000      -0.289987        -7.8909 
  17   1.0000      -0.287923        -7.8348 
  18   1.0000      -0.283271        -7.7082 
  19   1.0000      -0.270591        -7.3632 
  20   1.0000      -0.266989        -7.2651 
  21   1.0000      -0.265678        -7.2295 
  22   1.0000      -0.258832        -7.0432 
  23   1.0000      -0.256448        -6.9783 
  24   1.0000      -0.254538        -6.9263 
  25   1.0000      -0.254353        -6.9213 
  26   1.0000      -0.243833        -6.6350 
  27   1.0000      -0.229313        -6.2399 
  28   1.0000      -0.127355        -3.4655 
  29   0.0000      -0.127753        -3.4763 
  30   0.0000      -0.055359        -1.5064 
  31   0.0000      -0.035762        -0.9731 
  32   0.0000      -0.019835        -0.5397 
  33   0.0000      -0.019629        -0.5341 
  34   0.0000       0.020296         0.5523 
  35   0.0000       0.021450         0.5837 
  36   0.0000       0.063072         1.7163 
  37   0.0000       0.065563         1.7841 
  38   0.0000       0.072928         1.9845 
  39   0.0000       0.097665         2.6576 
  40   0.0000       0.138031         3.7560 
  41   0.0000       0.147279         4.0077 
  42   0.0000       0.148027         4.0280 
  43   0.0000       0.150431         4.0934 
  44   0.0000       0.163557         4.4506 
  45   0.0000       0.164323         4.4715 
  46   0.0000       0.205320         5.5870 
  47   0.0000       0.207728         5.6526 
  48   0.0000       0.274026         7.4566 
  49   0.0000       0.330454         8.9921 
  50   0.0000       0.331264         9.0142 
  51   0.0000       0.333821         9.0837 
  52   0.0000       0.367770        10.0075 
  53   0.0000       0.370338        10.0774 
  54   0.0000       0.377618        10.2755 
  55   0.0000       0.469786        12.7835 
  56   0.0000       0.471238        12.8230 
  57   0.0000       0.511928        13.9303 
  58   0.0000       0.527555        14.3555 
  59   0.0000       0.564901        15.3717 
  60   0.0000       0.565193        15.3797 
  61   0.0000       0.568786        15.4774 
  62   0.0000       0.569745        15.5036 
  63   0.0000       0.648755        17.6535 
  64   0.0000       0.648796        17.6546 
  65   0.0000       0.701388        19.0857 
  66   0.0000       1.428261        38.8650 
  67   0.0000       1.431303        38.9477 
  68   0.0000       1.466120        39.8952 
  69   0.0000       1.477342        40.2005 
  70   0.0000       1.498923        40.7878 
  71   0.0000       1.507714        41.0270 
  72   0.0000       1.508664        41.0528 
  73   0.0000       1.525760        41.5181 
  74   0.0000       1.530226        41.6396 
  75   0.0000       1.532758        41.7085 
  76   0.0000       1.543879        42.0111 
  77   0.0000       1.545498        42.0551 
  78   0.0000       1.550256        42.1846 
  79   0.0000       1.553747        42.2796 
  80   0.0000       1.559368        42.4326 
  81   0.0000       1.567682        42.6588 
  82   0.0000       1.570196        42.7272 
  83   0.0000       1.573448        42.8157 
  84   0.0000       1.577716        42.9318 
  85   0.0000       1.587363        43.1944 
  86   0.0000       1.599251        43.5178 
  87   0.0000       1.631245        44.3884 
  88   0.0000       1.642691        44.6999 
  89   0.0000       1.648295        44.8524 
  90   0.0000       1.663854        45.2758 
  91   0.0000       1.676484        45.6194 
  92   0.0000       1.682906        45.7942 
  93   0.0000       1.705113        46.3985 
  94   0.0000       1.706263        46.4298 
  95   0.0000       1.862760        50.6883 
  96   0.0000       1.895843        51.5885 
  97   0.0000       1.988067        54.0981 
  98   0.0000       1.994202        54.2650 
  99   0.0000       2.002075        54.4792 
 100   0.0000       2.027524        55.1717 
 101   0.0000       2.032833        55.3162 
 102   0.0000       2.034431        55.3597 
 103   0.0000       2.046699        55.6935 
 104   0.0000       2.059508        56.0421 
 105   0.0000       2.060207        56.0611 
 106   0.0000       2.068605        56.2896 
 107   0.0000       2.078716        56.5647 
 108   0.0000       2.163121        58.8615 
 109   0.0000       2.168835        59.0170 
 110   0.0000       2.194222        59.7078 
 111   0.0000       2.313030        62.9408 
 112   0.0000       2.483060        67.5675 
 113   0.0000       2.488515        67.7159 
 114   0.0000       4.670978       127.1038 
 115   0.0000       4.684539       127.4728 
 116   0.0000       4.687846       127.5628 
 117   0.0000       4.693315       127.7116 
 118   0.0000       4.702175       127.9527 
 119   0.0000       4.702460       127.9605 
 120   0.0000       4.708835       128.1339 
 121   0.0000       4.721489       128.4783 
 122   0.0000       4.723773       128.5404 
 123   0.0000       4.728291       128.6633 
 124   0.0000       4.730784       128.7312 
 125   0.0000       4.744369       129.1008 
 126   0.0000       4.745252       129.1249 
 127   0.0000       4.782161       130.1292 
 128   0.0000       4.800572       130.6302 
 129   0.0000       4.805262       130.7578 
 130   0.0000       4.809748       130.8799 
 131   0.0000       4.810221       130.8928 
 132   0.0000       4.962106       135.0258 
 133   0.0000       4.966603       135.1481 
 134   0.0000       4.982161       135.5715 
 135   0.0000       5.498232       149.6145 
 136   0.0000       5.498425       149.6198 
 137   0.0000       5.498624       149.6252 
 138   0.0000       5.499199       149.6408 
 139   0.0000       5.499583       149.6513 
 140   0.0000       5.499809       149.6574 
 141   0.0000       5.500569       149.6781 
 142   0.0000       5.500772       149.6836 
 143   0.0000       5.501315       149.6984 
 144   0.0000       5.501788       149.7112 
 145   0.0000       5.502188       149.7221 
 146   0.0000       5.502728       149.7368 
 147   0.0000       5.503589       149.7603 
 148   0.0000       5.503592       149.7604 
 149   0.0000       5.503866       149.7678 
 150   0.0000       5.503920       149.7693 
 151   0.0000       5.505885       149.8227 
 152   0.0000       5.507639       149.8705 
 153   0.0000       5.517180       150.1301 
 154   0.0000       5.518554       150.1675 
 155   0.0000       5.519583       150.1955 
 156   0.0000       5.521733       150.2540 
 157   0.0000       5.521741       150.2542 
 158   0.0000       5.522036       150.2622 
 159   0.0000       5.522785       150.2826 
 160   0.0000       5.525489       150.3562 
 161   0.0000       5.525647       150.3605 
 162   0.0000      33.252956       904.8589 
 163   0.0000      33.584464       913.8797 
 164   0.0000      33.595391       914.1771 
 165   0.0000     110.686244      3011.9258 
 166   0.0000     110.789460      3014.7345 
 167   0.0000     110.800436      3015.0331 

                 SPIN DOWN ORBITALS
  NO   OCC          E(Eh)            E(eV) 
   0   1.0000      -3.600823       -97.9834 
   1   1.0000      -3.600507       -97.9748 
   2   1.0000      -3.583926       -97.5236 
   3   1.0000      -2.227013       -60.6001 
   4   1.0000      -2.223620       -60.5078 
   5   1.0000      -2.222526       -60.4780 
   6   1.0000      -2.221562       -60.4518 
   7   1.0000      -2.221415       -60.4478 
   8   1.0000      -2.221067       -60.4383 
   9   1.0000      -2.207265       -60.0627 
  10   1.0000      -2.205951       -60.0270 
  11   1.0000      -2.202510       -59.9333 
  12   1.0000      -0.326365        -8.8808 
  13   1.0000      -0.309131        -8.4119 
  14   1.0000      -0.302611        -8.2345 
  15   1.0000      -0.300643        -8.1809 
  16   1.0000      -0.287310        -7.8181 
  17   1.0000      -0.286051        -7.7838 
  18   1.0000      -0.280964        -7.6454 
  19   1.0000      -0.269443        -7.3319 
  20   1.0000      -0.266370        -7.2483 
  21   1.0000      -0.264446        -7.1959 
  22   1.0000      -0.254884        -6.9358 
  23   1.0000      -0.252765        -6.8781 
  24   1.0000      -0.250061        -6.8045 
  25   1.0000      -0.250026        -6.8036 
  26   1.0000      -0.239718        -6.5231 
  27   1.0000      -0.221440        -6.0257 
  28   0.0000      -0.120922        -3.2904 
  29   0.0000      -0.103896        -2.8272 
  30   0.0000      -0.048103        -1.3089 
  31   0.0000      -0.025664        -0.6984 
  32   0.0000      -0.005843        -0.1590 
  33   0.0000      -0.004559        -0.1241 
  34   0.0000       0.024768         0.6740 
  35   0.0000       0.035378         0.9627 
  36   0.0000       0.070517         1.9189 
  37   0.0000       0.080709         2.1962 
  38   0.0000       0.085486         2.3262 
  39   0.0000       0.102936         2.8010 
  40   0.0000       0.148940         4.0529 
  41   0.0000       0.153802         4.1852 
  42   0.0000       0.154429         4.2022 
  43   0.0000       0.162764         4.4290 
  44   0.0000       0.176144         4.7931 
  45   0.0000       0.176976         4.8158 
  46   0.0000       0.211810         5.7636 
  47   0.0000       0.224921         6.1204 
  48   0.0000       0.290225         7.8974 
  49   0.0000       0.340618         9.2687 
  50   0.0000       0.343759         9.3542 
  51   0.0000       0.349515         9.5108 
  52   0.0000       0.374880        10.2010 
  53   0.0000       0.382156        10.3990 
  54   0.0000       0.388976        10.5846 
  55   0.0000       0.481028        13.0894 
  56   0.0000       0.486186        13.2298 
  57   0.0000       0.524482        14.2719 
  58   0.0000       0.536899        14.6098 
  59   0.0000       0.572083        15.5672 
  60   0.0000       0.582038        15.8381 
  61   0.0000       0.582765        15.8578 
  62   0.0000       0.584056        15.8930 
  63   0.0000       0.656198        17.8561 
  64   0.0000       0.663383        18.0516 
  65   0.0000       0.716687        19.5020 
  66   0.0000       1.430418        38.9237 
  67   0.0000       1.435193        39.0536 
  68   0.0000       1.470169        40.0053 
  69   0.0000       1.480849        40.2960 
  70   0.0000       1.499756        40.8104 
  71   0.0000       1.511441        41.1284 
  72   0.0000       1.512182        41.1486 
  73   0.0000       1.528216        41.5849 
  74   0.0000       1.532732        41.7077 
  75   0.0000       1.534079        41.7444 
  76   0.0000       1.545062        42.0433 
  77   0.0000       1.547121        42.0993 
  78   0.0000       1.552071        42.2340 
  79   0.0000       1.557534        42.3826 
  80   0.0000       1.563506        42.5452 
  81   0.0000       1.573340        42.8128 
  82   0.0000       1.573707        42.8227 
  83   0.0000       1.578969        42.9659 
  84   0.0000       1.580170        42.9986 
  85   0.0000       1.593361        43.3576 
  86   0.0000       1.601746        43.5857 
  87   0.0000       1.636903        44.5424 
  88   0.0000       1.644556        44.7506 
  89   0.0000       1.651665        44.9441 
  90   0.0000       1.670020        45.4435 
  91   0.0000       1.678172        45.6654 
  92   0.0000       1.686060        45.8800 
  93   0.0000       1.709145        46.5082 
  94   0.0000       1.712410        46.5971 
  95   0.0000       1.865385        50.7597 
  96   0.0000       1.899572        51.6900 
  97   0.0000       1.991442        54.1899 
  98   0.0000       1.996648        54.3316 
  99   0.0000       2.005734        54.5788 
 100   0.0000       2.029992        55.2389 
 101   0.0000       2.035173        55.3799 
 102   0.0000       2.039398        55.4948 
 103   0.0000       2.050112        55.7864 
 104   0.0000       2.064261        56.1714 
 105   0.0000       2.064709        56.1836 
 106   0.0000       2.070684        56.3462 
 107   0.0000       2.084360        56.7183 
 108   0.0000       2.165044        58.9138 
 109   0.0000       2.173284        59.1381 
 110   0.0000       2.198353        59.8202 
 111   0.0000       2.314421        62.9786 
 112   0.0000       2.484546        67.6079 
 113   0.0000       2.492460        67.8233 
 114   0.0000       4.672289       127.1394 
 115   0.0000       4.685738       127.5054 
 116   0.0000       4.689340       127.6034 
 117   0.0000       4.694003       127.7303 
 118   0.0000       4.703571       127.9907 
 119   0.0000       4.704065       128.0041 
 120   0.0000       4.710370       128.1757 
 121   0.0000       4.722368       128.5022 
 122   0.0000       4.724699       128.5656 
 123   0.0000       4.729372       128.6928 
 124   0.0000       4.731541       128.7518 
 125   0.0000       4.746694       129.1641 
 126   0.0000       4.747349       129.1819 
 127   0.0000       4.783500       130.1656 
 128   0.0000       4.801866       130.6654 
 129   0.0000       4.806485       130.7911 
 130   0.0000       4.811710       130.9333 
 131   0.0000       4.811807       130.9359 
 132   0.0000       4.962927       135.0481 
 133   0.0000       4.968072       135.1881 
 134   0.0000       4.983780       135.6156 
 135   0.0000       5.498479       149.6212 
 136   0.0000       5.498764       149.6290 
 137   0.0000       5.498999       149.6354 
 138   0.0000       5.499505       149.6491 
 139   0.0000       5.499744       149.6557 
 140   0.0000       5.499965       149.6617 
 141   0.0000       5.500988       149.6895 
 142   0.0000       5.501097       149.6925 
 143   0.0000       5.501852       149.7130 
 144   0.0000       5.501864       149.7133 
 145   0.0000       5.502433       149.7288 
 146   0.0000       5.503246       149.7509 
 147   0.0000       5.503725       149.7640 
 148   0.0000       5.503807       149.7662 
 149   0.0000       5.504337       149.7806 
 150   0.0000       5.504577       149.7872 
 151   0.0000       5.506114       149.8290 
 152   0.0000       5.508470       149.8931 
 153   0.0000       5.518532       150.1669 
 154   0.0000       5.519440       150.1916 
 155   0.0000       5.520672       150.2251 
 156   0.0000       5.522130       150.2648 
 157   0.0000       5.522819       150.2835 
 158   0.0000       5.522821       150.2836 
 159   0.0000       5.523092       150.2910 
 160   0.0000       5.526407       150.3812 
 161   0.0000       5.526840       150.3930 
 162   0.0000      33.253082       904.8624 
 163   0.0000      33.584655       913.8849 
 164   0.0000      33.595488       914.1797 
 165   0.0000     110.686364      3011.9291 
 166   0.0000     110.789549      3014.7369 
 167   0.0000     110.800608      3015.0378 

                    ********************************
                    * MULLIKEN POPULATION ANALYSIS *
                    ********************************

--------------------------------------------
MULLIKEN ATOMIC CHARGES AND SPIN POPULATIONS
--------------------------------------------
   0 Ag:   -0.097756    0.567174
   1 Ag:    0.048880    0.216405
   2 Ag:    0.048876    0.216421
Sum of atomic charges         :   -0.0000000
Sum of atomic spin populations:    1.0000000

-----------------------------------------------------
MULLIKEN REDUCED ORBITAL CHARGES AND SPIN POPULATIONS
-----------------------------------------------------
CHARGE
  0 Ags       :     3.036073  s :     3.036073
      pz      :     2.013685  p :     6.189241
      px      :     2.012326
      py      :     2.163231
      dz2     :     1.985748  d :     9.870731
      dxz     :     1.993873
      dyz     :     1.985919
      dx2y2   :     1.979824
      dxy     :     1.925368
      f0      :     0.000152  f :     0.001691
      f+1     :     0.000104
      f-1     :     0.000270
      f+2     :     0.000083
      f-2     :     0.000194
      f+3     :     0.000529
      f-3     :     0.000358
      g0      :     0.000002  g :     0.000021
      g+1     :     0.000001
      g-1     :     0.000002
      g+2     :     0.000001
      g-2     :     0.000003
      g+3     :     0.000002
      g-3     :     0.000000
      g+4     :     0.000004
      g-4     :     0.000005
  1 Ags       :     2.821743  s :     2.821743
      pz      :     2.016562  p :     6.212761
      px      :     2.037614
      py      :     2.158585
      dz2     :     1.988302  d :     9.914695
      dxz     :     1.991389
      dyz     :     1.994585
      dx2y2   :     1.962418
      dxy     :     1.978002
      f0      :     0.000168  f :     0.001900
      f+1     :     0.000249
      f-1     :     0.000159
      f+2     :     0.000192
      f-2     :     0.000143
      f+3     :     0.000590
      f-3     :     0.000399
      g0      :     0.000002  g :     0.000021
      g+1     :     0.000002
      g-1     :     0.000001
      g+2     :     0.000002
      g-2     :     0.000002
      g+3     :     0.000002
      g-3     :     0.000001
      g+4     :     0.000005
      g-4     :     0.000005
  2 Ags       :     2.821749  s :     2.821749
      pz      :     2.016562  p :     6.212761
      px      :     2.037614
      py      :     2.158585
      dz2     :     1.988302  d :     9.914693
      dxz     :     1.991389
      dyz     :     1.994584
      dx2y2   :     1.962417
      dxy     :     1.978002
      f0      :     0.000168  f :     0.001900
      f+1     :     0.000249
      f-1     :     0.000159
      f+2     :     0.000192
      f-2     :     0.000143
      f+3     :     0.000590
      f-3     :     0.000399
      g0      :     0.000002  g :     0.000021
      g+1     :     0.000002
      g-1     :     0.000001
      g+2     :     0.000002
      g-2     :     0.000002
      g+3     :     0.000002
      g-3     :     0.000001
      g+4     :     0.000005
      g-4     :     0.000005

SPIN
  0 Ags       :     0.451963  s :     0.451963
      pz      :     0.000379  p :     0.102856
      px      :     0.001506
      py      :     0.100971
      dz2     :     0.001169  d :     0.012369
      dxz     :     0.000351
      dyz     :     0.000846
      dx2y2   :     0.002156
      dxy     :     0.007848
      f0      :    -0.000002  f :    -0.000014
      f+1     :    -0.000001
      f-1     :     0.000002
      f+2     :     0.000000
      f-2     :    -0.000001
      f+3     :    -0.000011
      f-3     :    -0.000002
      g0      :     0.000000  g :     0.000000
      g+1     :     0.000000
      g-1     :     0.000000
      g+2     :     0.000000
      g-2     :     0.000000
      g+3     :     0.000000
      g-3     :     0.000000
      g+4     :     0.000000
      g-4     :     0.000000
  1 Ags       :     0.083177  s :     0.083177
      pz      :    -0.000046  p :     0.126945
      px      :    -0.000638
      py      :     0.127630
      dz2     :     0.000557  d :     0.006277
      dxz     :    -0.000302
      dyz     :    -0.000436
      dx2y2   :     0.002375
      dxy     :     0.004083
      f0      :    -0.000001  f :     0.000005
      f+1     :    -0.000002
      f-1     :     0.000004
      f+2     :    -0.000001
      f-2     :    -0.000001
      f+3     :     0.000008
      f-3     :    -0.000003
      g0      :     0.000000  g :    -0.000000
      g+1     :     0.000000
      g-1     :     0.000000
      g+2     :    -0.000000
      g-2     :     0.000000
      g+3     :     0.000000
      g-3     :    -0.000000
      g+4     :    -0.000000
      g-4     :    -0.000000
  2 Ags       :     0.083193  s :     0.083193
      pz      :    -0.000046  p :     0.126945
      px      :    -0.000638
      py      :     0.127630
      dz2     :     0.000557  d :     0.006277
      dxz     :    -0.000302
      dyz     :    -0.000436
      dx2y2   :     0.002375
      dxy     :     0.004083
      f0      :    -0.000001  f :     0.000005
      f+1     :    -0.000002
      f-1     :     0.000004
      f+2     :    -0.000001
      f-2     :    -0.000001
      f+3     :     0.000008
      f-3     :    -0.000003
      g0      :     0.000000  g :    -0.000000
      g+1     :     0.000000
      g-1     :     0.000000
      g+2     :    -0.000000
      g-2     :     0.000000
      g+3     :     0.000000
      g-3     :    -0.000000
      g+4     :    -0.000000
      g-4     :    -0.000000


                     *******************************
                     * LOEWDIN POPULATION ANALYSIS *
                     *******************************

-------------------------------------------
LOEWDIN ATOMIC CHARGES AND SPIN POPULATIONS
-------------------------------------------
   0 Ag:   -0.074873    0.478287
   1 Ag:    0.037440    0.260850
   2 Ag:    0.037433    0.260862

----------------------------------------------------
LOEWDIN REDUCED ORBITAL CHARGES AND SPIN POPULATIONS
----------------------------------------------------
CHARGE
  0 Ags       :     2.813754  s :     2.813754
      pz      :     2.016192  p :     6.350445
      px      :     2.027395
      py      :     2.306857
      dz2     :     1.999687  d :     9.908164
      dxz     :     1.993722
      dyz     :     1.983605
      dx2y2   :     1.984634
      dxy     :     1.946515
      f0      :     0.000202  f :     0.002482
      f+1     :     0.000156
      f-1     :     0.000394
      f+2     :     0.000107
      f-2     :     0.000281
      f+3     :     0.000872
      f-3     :     0.000472
      g0      :     0.000002  g :     0.000028
      g+1     :     0.000001
      g-1     :     0.000003
      g+2     :     0.000002
      g-2     :     0.000004
      g+3     :     0.000003
      g-3     :     0.000000
      g+4     :     0.000005
      g-4     :     0.000008
  1 Ags       :     2.659043  s :     2.659043
      pz      :     2.018865  p :     6.351110
      px      :     2.097422
      py      :     2.234824
      dz2     :     1.998566  d :     9.949580
      dxz     :     1.989694
      dyz     :     1.993694
      dx2y2   :     1.979855
      dxy     :     1.987770
      f0      :     0.000225  f :     0.002800
      f+1     :     0.000306
      f-1     :     0.000234
      f+2     :     0.000268
      f-2     :     0.000190
      f+3     :     0.001054
      f-3     :     0.000524
      g0      :     0.000002  g :     0.000028
      g+1     :     0.000002
      g-1     :     0.000001
      g+2     :     0.000003
      g-2     :     0.000002
      g+3     :     0.000003
      g-3     :     0.000001
      g+4     :     0.000008
      g-4     :     0.000006
  2 Ags       :     2.659049  s :     2.659049
      pz      :     2.018865  p :     6.351112
      px      :     2.097423
      py      :     2.234824
      dz2     :     1.998566  d :     9.949578
      dxz     :     1.989694
      dyz     :     1.993694
      dx2y2   :     1.979854
      dxy     :     1.987770
      f0      :     0.000225  f :     0.002800
      f+1     :     0.000306
      f-1     :     0.000234
      f+2     :     0.000268
      f-2     :     0.000190
      f+3     :     0.001054
      f-3     :     0.000524
      g0      :     0.000002  g :     0.000028
      g+1     :     0.000002
      g-1     :     0.000001
      g+2     :     0.000003
      g-2     :     0.000002
      g+3     :     0.000003
      g-3     :     0.000001
      g+4     :     0.000008
      g-4     :     0.000006

SPIN
  0 Ags       :     0.308758  s :     0.308758
      pz      :     0.000511  p :     0.158828
      px      :     0.000705
      py      :     0.157611
      dz2     :     0.001988  d :     0.010641
      dxz     :    -0.000101
      dyz     :     0.000365
      dx2y2   :     0.003435
      dxy     :     0.004953
      f0      :     0.000001  f :     0.000061
      f+1     :     0.000000
      f-1     :     0.000063
      f+2     :     0.000002
      f-2     :     0.000000
      f+3     :    -0.000007
      f-3     :     0.000000
      g0      :     0.000000  g :     0.000001
      g+1     :     0.000000
      g-1     :     0.000000
      g+2     :     0.000000
      g-2     :     0.000000
      g+3     :     0.000000
      g-3     :     0.000000
      g+4     :     0.000000
      g-4     :     0.000000
  1 Ags       :     0.061789  s :     0.061789
      pz      :     0.000170  p :     0.184588
      px      :     0.001582
      py      :     0.182836
      dz2     :     0.001131  d :     0.014302
      dxz     :    -0.000321
      dyz     :    -0.000248
      dx2y2   :     0.006379
      dxy     :     0.007361
      f0      :     0.000003  f :     0.000171
      f+1     :     0.000003
      f-1     :     0.000039
      f+2     :     0.000002
      f-2     :     0.000003
      f+3     :     0.000114
      f-3     :     0.000007
      g0      :     0.000000  g :     0.000001
      g+1     :     0.000000
      g-1     :     0.000000
      g+2     :     0.000000
      g-2     :     0.000000
      g+3     :     0.000000
      g-3     :    -0.000000
      g+4     :     0.000000
      g-4     :     0.000000
  2 Ags       :     0.061800  s :     0.061800
      pz      :     0.000170  p :     0.184588
      px      :     0.001582
      py      :     0.182836
      dz2     :     0.001131  d :     0.014302
      dxz     :    -0.000321
      dyz     :    -0.000248
      dx2y2   :     0.006378
      dxy     :     0.007361
      f0      :     0.000003  f :     0.000171
      f+1     :     0.000003
      f-1     :     0.000039
      f+2     :     0.000002
      f-2     :     0.000003
      f+3     :     0.000114
      f-3     :     0.000007
      g0      :     0.000000  g :     0.000001
      g+1     :     0.000000
      g-1     :     0.000000
      g+2     :     0.000000
      g-2     :     0.000000
      g+3     :     0.000000
      g-3     :    -0.000000
      g+4     :     0.000000
      g-4     :     0.000000


                      *****************************
                      * MAYER POPULATION ANALYSIS *
                      *****************************

  NA   - Mulliken gross atomic population
  ZA   - Total nuclear charge
  QA   - Mulliken gross atomic charge
  VA   - Mayer's total valence
  BVA  - Mayer's bonded valence
  FA   - Mayer's free valence

  ATOM       NA         ZA         QA         VA         BVA        FA
  0 Ag    19.0978    19.0000    -0.0978     1.5298     1.2105     0.3192
  1 Ag    18.9511    19.0000     0.0489     1.4232     1.3591     0.0641
  2 Ag    18.9511    19.0000     0.0489     1.4232     1.3591     0.0641

  Mayer bond orders larger than 0.100000
B(  0-Ag,  1-Ag) :   0.6053 B(  0-Ag,  2-Ag) :   0.6053 B(  1-Ag,  2-Ag) :   0.7538 


-------
TIMINGS
-------

Total SCF time: 0 days 0 hours 0 min 5 sec 

Total time                  ....       5.737 sec
Sum of individual times     ....       5.571 sec  ( 97.1%)

Fock matrix formation       ....       3.646 sec  ( 63.6%)
  Split-RI-J                ....       1.987 sec  ( 54.5% of F)
  XC integration            ....       1.528 sec  ( 41.9% of F)
    Basis function eval.    ....       0.080 sec  (  5.2% of XC)
    Density eval.           ....       0.195 sec  ( 12.7% of XC)
    XC-Functional eval.     ....       0.059 sec  (  3.9% of XC)
    XC-Potential eval.      ....       0.427 sec  ( 27.9% of XC)
Diagonalization             ....       0.165 sec  (  2.9%)
Density matrix formation    ....       0.029 sec  (  0.5%)
Population analysis         ....       0.009 sec  (  0.2%)
Initial guess               ....       1.330 sec  ( 23.2%)
Orbital Transformation      ....       0.000 sec  (  0.0%)
Orbital Orthonormalization  ....       0.000 sec  (  0.0%)
DIIS solution               ....       0.060 sec  (  1.1%)
Grid generation             ....       0.330 sec  (  5.8%)


-------------------------------------------------------------------------------
                          DFT DISPERSION CORRECTION                            
                                                                               
                              DFTD3 V3.1  Rev 1                                
                          USING Becke-Johnson damping                          
-------------------------------------------------------------------------------
The TPSS functional is recognized
Active option DFTDOPT                   ...         4   

molecular C6(AA) [au] = 2417.548083 


            DFT-D V3
 parameters
 s6 scaling factor         :     1.0000 
 a1 scaling factor         :     0.4535 
 s8 scaling factor         :     1.9435 
 a2 scaling factor         :     4.4752 
 ad hoc parameters k1-k3   :    16.0000     1.3333    -4.0000 

 Edisp/kcal,au: -3.599229254633  -0.005735736303 
 E6   /kcal   :  -1.087694069 
 E8   /kcal   :  -2.511535185 
 % E8         :  69.779805832 

-------------------------   ----------------
Dispersion correction           -0.005735736
-------------------------   ----------------


-------------------------   --------------------
FINAL SINGLE POINT ENERGY      -440.837295005083
-------------------------   --------------------


                            ***************************************
                            *     ORCA property calculations      *
                            ***************************************

                                    ---------------------
                                    Active property flags
                                    ---------------------
   (+) Dipole Moment


------------------------------------------------------------------------------
                       ORCA ELECTRIC PROPERTIES CALCULATION
------------------------------------------------------------------------------

Dipole Moment Calculation                       ... on
Quadrupole Moment Calculation                   ... off
Polarizability Calculation                      ... off
GBWName                                         ... Ag03N0_D3H.gbw
Electron density file                           ... Ag03N0_D3H.scfp
The origin for moment calculation is the CENTER OF MASS  = ( 0.000000, -0.000001  0.000000)

-------------
DIPOLE MOMENT
-------------
                                X             Y             Z
Electronic contribution:      0.00002      -0.45235      -0.00000
Nuclear contribution   :      0.00000       0.00000       0.00000
                        -----------------------------------------
Total Dipole Moment    :      0.00002      -0.45235      -0.00000
                        -----------------------------------------
Magnitude (a.u.)       :      0.45235
Magnitude (Debye)      :      1.14977



--------------------
Rotational spectrum 
--------------------
 
Rotational constants in cm-1:     0.044277     0.044277     0.022139 
Rotational constants in MHz :  1327.402110  1327.401756   663.700966 

 Dipole components along the rotational axes: 
x,y,z [a.u.] :     0.000020    -0.452346    -0.000000 
x,y,z [Debye]:     0.000051    -1.149772    -0.000000 

 

Timings for individual modules:

Sum of individual times         ...        7.145 sec (=   0.119 min)
GTO integral calculation        ...        1.076 sec (=   0.018 min)  15.1 %
SCF iterations                  ...        6.069 sec (=   0.101 min)  84.9 %
                             ****ORCA TERMINATED NORMALLY****
TOTAL RUN TIME: 0 days 0 hours 0 minutes 7 seconds 622 msec
