
                                 *****************
                                 * O   R   C   A *
                                 *****************

           --- An Ab Initio, DFT and Semiempirical electronic structure package ---

                  #######################################################
                  #                        -***-                        #
                  #          Department of theory and spectroscopy      #
                  #               Directorship: Frank Neese             #
                  #        Max Planck Institute fuer Kohlenforschung    #
                  #                Kaiser Wilhelm Platz 1               #
                  #                 D-45470 Muelheim/Ruhr               #
                  #                      Germany                        #
                  #                                                     #
                  #                  All rights reserved                #
                  #                        -***-                        #
                  #######################################################


                         Program Version 4.2.0 -  RELEASE  -


 With contributions from (in alphabetic order):
   Daniel Aravena         : Magnetic Suceptibility
   Michael Atanasov       : Ab Initio Ligand Field Theory (pilot matlab implementation)
   Alexander A. Auer      : GIAO ZORA, VPT2
   Ute Becker             : Parallelization
   Giovanni Bistoni       : ED, misc. LED, open-shell LED, HFLED
   Martin Brehm           : Molecular dynamics
   Dmytro Bykov           : SCF Hessian
   Vijay G. Chilkuri      : MRCI spin determinant printing, contributions to CSF-ICE
   Dipayan Datta          : RHF DLPNO-CCSD density
   Achintya Kumar Dutta   : EOM-CC, STEOM-CC
   Dmitry Ganyushin       : Spin-Orbit,Spin-Spin,Magnetic field MRCI
   Miquel Garcia          : C-PCM Hessian, Gaussian charge scheme
   Yang Guo               : DLPNO-NEVPT2, CIM, IAO-localization
   Andreas Hansen         : Spin unrestricted coupled pair/coupled cluster methods
   Benjamin Helmich-Paris : CASSCF linear response (MC-RPA)
   Lee Huntington         : MR-EOM, pCC
   Robert Izsak           : Overlap fitted RIJCOSX, COSX-SCS-MP3, EOM
   Christian Kollmar      : KDIIS, OOCD, Brueckner-CCSD(T), CCSD density
   Simone Kossmann        : Meta GGA functionals, TD-DFT gradient, OOMP2, MP2 Hessian
   Martin Krupicka        : AUTO-CI
   Lucas Lang             : DCDCAS
   Dagmar Lenk            : GEPOL surface, SMD
   Dimitrios Liakos       : Extrapolation schemes; Compound Job, initial MDCI parallelization
   Dimitrios Manganas     : Further ROCIS development; embedding schemes
   Dimitrios Pantazis     : SARC Basis sets
   Taras Petrenko         : DFT Hessian,TD-DFT gradient, ASA, ECA, R-Raman, ABS, FL, XAS/XES, NRVS
   Peter Pinski           : DLPNO-MP2, DLPNO-MP2 Gradient
   Christoph Reimann      : Effective Core Potentials
   Marius Retegan         : Local ZFS, SOC
   Christoph Riplinger    : Optimizer, TS searches, QM/MM, DLPNO-CCSD(T), (RO)-DLPNO pert. Triples
   Tobias Risthaus        : Range-separated hybrids, TD-DFT gradient, RPA, STAB
   Michael Roemelt        : Original ROCIS implementation
   Masaaki Saitow         : Open-shell DLPNO-CCSD energy and density
   Barbara Sandhoefer     : DKH picture change effects
   Avijit Sen             : IP-ROCIS
   Kantharuban Sivalingam : CASSCF convergence, NEVPT2, FIC-MRCI
   Bernardo de Souza      : ESD, SOC TD-DFT
   Georgi Stoychev        : AutoAux, RI-MP2 NMR
   Willem Van den Heuvel  : Paramagnetic NMR
   Boris Wezisla          : Elementary symmetry handling
   Frank Wennmohs         : Technical directorship


 We gratefully acknowledge several colleagues who have allowed us to
 interface, adapt or use parts of their codes:
   Stefan Grimme, W. Hujo, H. Kruse,             : VdW corrections, initial TS optimization,
                  C. Bannwarth                     DFT functionals, gCP, sTDA/sTD-DF
   Ed Valeev, F. Pavosevic, A. Kumar             : LibInt (2-el integral package), F12 methods
   Garnet Chan, S. Sharma, J. Yang, R. Olivares  : DMRG
   Ulf Ekstrom                                   : XCFun DFT Library
   Mihaly Kallay                                 : mrcc  (arbitrary order and MRCC methods)
   Andreas Klamt, Michael Diedenhofen            : otool_cosmo (COSMO solvation model)
   Jiri Pittner, Ondrej Demel                    : Mk-CCSD
   Frank Weinhold                                : gennbo (NPA and NBO analysis)
   Christopher J. Cramer and Donald G. Truhlar   : smd solvation model
   Lars Goerigk                                  : TD-DFT with DH, B97 family of functionals
   V. Asgeirsson, H. Jonsson                     : NEB implementation
   FAccTs GmbH                                   : IRC, NEB, NEB-TS, Multilevel, MM, QM/MM, CI optimization
   S Lehtola, MJT Oliveira, MAL Marques          : LibXC Library


 Your calculation uses the libint2 library for the computation of 2-el integrals
 For citations please refer to: http://libint.valeyev.net

 Your ORCA version has been built with support for libXC version: 4.2.3
 For citations please refer to: https://tddft.org/programs/libxc/

 This ORCA versions uses:
   CBLAS   interface :  Fast vector & matrix operations
   LAPACKE interface :  Fast linear algebra routines
   SCALAPACK package :  Parallel linear algebra routines


Your calculation utilizes the atom-pairwise dispersion correction
with the Becke-Johnson damping scheme (D3BJ)
Cite in your paper:
S.Grimme, S.Ehrlich, L.Goerigk, J Comput Chem, (2011), 32, 1456–1465 
S.Grimme, J.Antony, S.Ehrlich and H.Krieg, J.Chem.Phys., 132, (2010), 154104 
   

----- Orbital basis set information -----
Your calculation utilizes the basis: def2-TZVPPD
   F. Weigend and R. Ahlrichs, Phys. Chem. Chem. Phys. 7, 3297 (2005).
   D. Rappoport and F. Furche, J. Chem. Phys. 133 134105 (2010).

----- AuxJ basis set information -----
Your calculation utilizes the auxiliary basis: def2/J
   F. Weigend, Phys. Chem. Chem. Phys. 8, 1057 (2006).

cite the ECPs for Ag [Def2-ECP] as follows:
Ce-Yb(ecp-28): M. Dolg, H. Stoll, H.Preuss, J. Chem. Phys., 1989, 90, 1730-1734.
Y-Cd(ecp-28), Hf-Hg(ecp-46): D. Andrae,U. Haeussermann, M. Dolg, H. Stoll, H. Preuss, Theor. Chim. Acta, 1990, 77, 123-141.
In-Sb(ecp-28), Tl-Bi(ecp-46): B. Metz, H. Stoll, M. Dolg, J. Chem. Phys., 2000, 113, 2563-2569.
Te-Xe(ecp-28), Po-Rn(ecp-46): K. A. Peterson, D. Figgen, E. Goll, H. Stoll, M. Dolg, J. Chem. Phys., 2003, 119, 11113-11123.
Rb(ecp-28), Cs(ecp-46): T. Leininger, A. Nicklass, W. Kuechle, H. Stoll, M. Dolg, A. Bergner, Chem. Phys. Lett., 1996, 255, 274-280.
Sr(ecp-28), Ba(ecp-46): M. Kaupp, P. V. Schleyer, H. Stoll and H. Preuss, J. Chem. Phys., 1991, 94, 1360-1366.
La(ecp-46): M. Dolg, H. Stoll, A. Savin, H. Preuss, Theor. Chim. Acta, 1989, 75, 173-194.
Lu(ecp-28): X. Cao, M. Dolg, J. Chem. Phys., 2001, 115, 7348-7355.

ECP parameters for Ag [Def2-ECP] have been obtained from:
TURBOMOLE (7.0.2)

================================================================================
                                        WARNINGS
                       Please study these warnings very carefully!
================================================================================


INFO   : the flag for use of LIBINT has been found!

================================================================================
                                       INPUT FILE
================================================================================
NAME = Ag03C1_D3H.in
|  1> #
|  2> # Ag03C1_D3H TPSS-D3BJ/Def2-TZVPPD
|  3> #
|  4> ! tpss d3bj def2-tzvppd def2/j grid4 nofinalgrid
|  5> 
|  6> *xyz 1 1
|  7> Ag       0.000000    1.529877    0.000000 
|  8> Ag       1.324912   -0.764938    0.000000 
|  9> Ag      -1.324912   -0.764938    0.000000 
| 10> *
| 11> 
| 12> %maxcore 5000
| 13> 
| 14> %pal
| 15> nprocs = 24
| 16> end
| 17> 
| 18> 
| 19>                          ****END OF INPUT****
================================================================================

                       ****************************
                       * Single Point Calculation *
                       ****************************

---------------------------------
CARTESIAN COORDINATES (ANGSTROEM)
---------------------------------
  Ag     0.000000    1.529877    0.000000
  Ag     1.324912   -0.764938    0.000000
  Ag    -1.324912   -0.764938    0.000000

----------------------------
CARTESIAN COORDINATES (A.U.)
----------------------------
  NO LB      ZA    FRAG     MASS         X           Y           Z
   0 Ag   19.0000*   0   107.870    0.000000    2.891049    0.000000
   1 Ag   19.0000*   0   107.870    2.503721   -1.445523    0.000000
   2 Ag   19.0000*   0   107.870   -2.503721   -1.445523    0.000000
* core charge reduced due to ECP

--------------------------------
INTERNAL COORDINATES (ANGSTROEM)
--------------------------------
 Ag     0   0   0     0.000000000000     0.00000000     0.00000000
 Ag     1   0   0     2.649824086986     0.00000000     0.00000000
 Ag     2   1   0     2.649824000000    60.00000109     0.00000000

---------------------------
INTERNAL COORDINATES (A.U.)
---------------------------
 Ag     0   0   0     0.000000000000     0.00000000     0.00000000
 Ag     1   0   0     5.007441827471     0.00000000     0.00000000
 Ag     2   1   0     5.007441663092    60.00000109     0.00000000

---------------------
BASIS SET INFORMATION
---------------------
There are 1 groups of distinct atoms

 Group   1 Type Ag  : 7s7p6d2f1g contracted to 6s4p3d2f1g pattern {211111/4111/411/11/1}

Atom   0Ag   basis set group =>   1
Atom   1Ag   basis set group =>   1
Atom   2Ag   basis set group =>   1
---------------------------------
AUXILIARY/J BASIS SET INFORMATION
---------------------------------
There are 1 groups of distinct atoms

 Group   1 Type Ag  : 11s5p5d3f3g contracted to 8s5p5d2f3g pattern {41111111/11111/11111/21/111}

Atom   0Ag   basis set group =>   1
Atom   1Ag   basis set group =>   1
Atom   2Ag   basis set group =>   1
-------------------------
ECP PARAMETER INFORMATION
-------------------------

 Group 1, Type Ag ECP Def2-ECP (replacing 28 core electrons, lmax=3)

Atom   0Ag   ECP group =>   1
Atom   1Ag   ECP group =>   1
Atom   2Ag   ECP group =>   1



           ************************************************************
           *        Program running with 24 parallel MPI-processes    *
           *              working on a common directory               *
           ************************************************************
------------------------------------------------------------------------------
                           ORCA GTO INTEGRAL CALCULATION
                           -- RI-GTO INTEGRALS CHOSEN --
------------------------------------------------------------------------------

                         BASIS SET STATISTICS AND STARTUP INFO

Gaussian basis set:
 # of primitive gaussian shells          ...   69
 # of primitive gaussian functions       ...  243
 # of contracted shells                  ...   48
 # of contracted basis functions         ...  168
 Highest angular momentum                ...    4
 Maximum contraction depth               ...    4
Auxiliary gaussian basis set:
 # of primitive gaussian shells          ...   81
 # of primitive gaussian functions       ...  297
 # of contracted shells                  ...   69
 # of contracted aux-basis functions     ...  267
 Highest angular momentum                ...    4
 Maximum contraction depth               ...    4
Ratio of auxiliary to basis functions    ...  1.59
Integral package used                  ... LIBINT
 One Electron integrals                  
   ECP integrals                         ... done
 Ordering auxiliary basis shells         ... done
 Integral threshhold             Thresh  ...  1.000e-10
 Primitive cut-off               TCut    ...  1.000e-11
 Pre-screening matrix                    ... done
 Shell pair data                         ... 
 Ordering of the shell pairs             ... done (   0.000 sec) 1134 of 1176 pairs
 Determination of significant pairs      ... done (   0.000 sec)
 Creation of shell pair data             ... done (   0.000 sec)
 Storage of shell pair data              ... done (   0.030 sec)
 Shell pair data done in (   0.030 sec)
 Computing two index integrals           ... done
 Cholesky decomposition of the V-matrix  ... done


Timings:
 Total evaluation time                   ...   0.661 sec (  0.011 min)
 One electron matrix time                ...   0.401 sec (  0.007 min) = 60.7%
 Schwartz matrix evaluation time         ...   0.133 sec (  0.002 min) = 20.2%
 Two index repulsion integral time       ...   0.001 sec (  0.000 min) =  0.2%
 Cholesky decomposition of V             ...   0.068 sec (  0.001 min) = 10.3%
 Three index repulsion integral time     ...   0.000 sec (  0.000 min) =  0.0%



           ************************************************************
           *        Program running with 24 parallel MPI-processes    *
           *              working on a common directory               *
           ************************************************************
-------------------------------------------------------------------------------
                                 ORCA SCF
-------------------------------------------------------------------------------

------------
SCF SETTINGS
------------
Hamiltonian:
 Density Functional     Method          .... DFT(GTOs)
 Exchange Functional    Exchange        .... TPSS
 Correlation Functional Correlation     .... TPSS
 LDA part of GGA corr.  LDAOpt          .... PW91-LDA
 Gradients option       PostSCFGGA      .... off
   Density functional embedding theory  .... OFF
   NL short-range parameter             ....  5.000000
 RI-approximation to the Coulomb term is turned on
   Number of auxiliary basis functions  .... 267


General Settings:
 Integral files         IntName         .... Ag03C1_D3H
 Hartree-Fock type      HFTyp           .... RHF
 Total Charge           Charge          ....    1
 Multiplicity           Mult            ....    1
 Number of Electrons    NEL             ....   56
 Basis Dimension        Dim             ....  168
 Nuclear Repulsion      ENuc            ....    216.2781015067 Eh

Convergence Acceleration:
 DIIS                   CNVDIIS         .... on
   Start iteration      DIISMaxIt       ....    12
   Startup error        DIISStart       ....  0.200000
   # of expansion vecs  DIISMaxEq       ....     5
   Bias factor          DIISBfac        ....   1.050
   Max. coefficient     DIISMaxC        ....  10.000
 Newton-Raphson         CNVNR           .... off
 SOSCF                  CNVSOSCF        .... off
 Level Shifting         CNVShift        .... on
   Level shift para.    LevelShift      ....    0.2500
   Turn off err/grad.   ShiftErr        ....    0.0010
 Zerner damping         CNVZerner       .... off
 Static damping         CNVDamp         .... on
   Fraction old density DampFac         ....    0.7000
   Max. Damping (<1)    DampMax         ....    0.9800
   Min. Damping (>=0)   DampMin         ....    0.0000
   Turn off err/grad.   DampErr         ....    0.1000
 Fernandez-Rico         CNVRico         .... off

SCF Procedure:
 Maximum # iterations   MaxIter         ....   125
 SCF integral mode      SCFMode         .... Direct
   Integral package                     .... LIBINT
 Reset frequency        DirectResetFreq ....    20
 Integral Threshold     Thresh          ....  1.000e-10 Eh
 Primitive CutOff       TCut            ....  1.000e-11 Eh

Convergence Tolerance:
 Convergence Check Mode ConvCheckMode   .... Total+1el-Energy
 Convergence forced     ConvForced      .... 0
 Energy Change          TolE            ....  1.000e-06 Eh
 1-El. energy change                    ....  1.000e-03 Eh
 DIIS Error             TolErr          ....  1.000e-06


Diagonalization of the overlap matrix:
Smallest eigenvalue                        ... 2.894e-03
Time for diagonalization                   ...    0.005 sec
Threshold for overlap eigenvalues          ... 1.000e-08
Number of eigenvalues below threshold      ... 0
Time for construction of square roots      ...    0.003 sec
Total time needed                          ...    0.008 sec

-------------------
DFT GRID GENERATION
-------------------

General Integration Accuracy     IntAcc      ...  4.670
Radial Grid Type                 RadialGrid  ... Gauss-Chebyshev
Angular Grid (max. acc.)         AngularGrid ... Lebedev-302
Angular grid pruning method      GridPruning ... 3 (G Style)
Weight generation scheme         WeightScheme... Becke
Basis function cutoff            BFCut       ...    1.0000e-10
Integration weight cutoff        WCut        ...    1.0000e-14
Grids for H and He will be reduced by one unit

# of grid points (after initial pruning)     ...  31974 (   0.0 sec)
# of grid points (after weights+screening)   ...  31838 (   0.0 sec)
nearest neighbour list constructed           ...    0.0 sec
Grid point re-assignment to atoms done       ...    0.0 sec
Grid point division into batches done        ...    0.3 sec
Reduced shell lists constructed in    0.3 sec

Total number of grid points                  ...    31838
Total number of batches                      ...      500
Average number of points per batch           ...       63
Average number of grid points per atom       ...    10613
Average number of shells per batch           ...     4.27 ( 8.90%)
Average number of basis functions per batch  ...     9.18 ( 5.47%)
Average number of large shells per batch     ...     2.82 (65.96%)
Average number of large basis fcns per batch ...     5.91 (64.36%)
Maximum spatial batch extension              ...  27.01, 22.64, 31.14 au
Average spatial batch extension              ...   0.75,  0.63,  0.73 au

Time for grid setup =    0.422 sec

------------------------------
INITIAL GUESS: MODEL POTENTIAL
------------------------------
Loading Hartree-Fock densities                     ... done
  calling /sw/apps/orca/orca_4_2_0_linux_x86-64_openmpi314/orca Ag03C1_D3H_atom47.inp > Ag03C1_D3H_atom47.out in order to generate an atomic fitting density for atom 0 (Ag with ECP) on-the-fly... 
    atom 0 (Ag), assumed electronic state with S=2: 1s2 2s2 2p6 3s2 3p6 4s2 3d10 4p6 5s2 4d9           ... done
Calculating cut-offs                               ... done
Setting up the integral package                    ... done
Initializing the effective Hamiltonian             ... done
Starting the Coulomb interaction                   ... done (   0.0 sec)
Reading the grid                                   ... done
Mapping shells                                     ... done
Starting the XC term evaluation                    ... done (   0.0 sec)
  promolecular density results
     # of electrons  =    141.001593444
     EX              =   -430.311888345
     EC              =     -7.473148661
     EX+EC           =   -437.785037007
Transforming the Hamiltonian                       ... done (   0.0 sec)
Diagonalizing the Hamiltonian                      ... done (   0.0 sec)
Back transforming the eigenvectors                 ... done (   0.0 sec)
Now organizing SCF variables                       ... done
                      ------------------
                      INITIAL GUESS DONE (   1.9 sec)
                      ------------------
--------------
SCF ITERATIONS
--------------
ITER       Energy         Delta-E        Max-DP      RMS-DP      [F,P]     Damp
               ***  Starting incremental Fock matrix formation  ***
  0   -440.3672530189   0.000000000000 0.09314523  0.00240093  0.5142458 0.7000
  1   -440.4926744776  -0.125421458732 0.03858478  0.00121710  0.3330228 0.7000
  2   -440.5310312358  -0.038356758183 0.01034491  0.00037002  0.2196727 0.7000
                               ***Turning on DIIS***
  3   -440.5576009990  -0.026569763202 0.00611407  0.00019396  0.1509658 0.7000
  4   -440.5775419193  -0.019940920273 0.00457642  0.00017721  0.1060705 0.7000
  5   -440.5915299033  -0.013987984041 0.01381136  0.00045918  0.0742583 0.0000
  6   -440.6240337628  -0.032503859476 0.00212830  0.00007247  0.0006184 0.0000
  7   -440.6240369037  -0.000003140892 0.00057864  0.00001705  0.0011820 0.0000
  8   -440.6240433318  -0.000006428104 0.00024597  0.00000811  0.0001494 0.0000
                 **** Energy Check signals convergence ****

               *****************************************************
               *                     SUCCESS                       *
               *           SCF CONVERGED AFTER   9 CYCLES          *
               *****************************************************


----------------
TOTAL SCF ENERGY
----------------

Total Energy       :         -440.62404352 Eh          -11989.98978 eV

Components:
Nuclear Repulsion  :          216.27810151 Eh            5885.22634 eV
Electronic Energy  :         -656.90214502 Eh          -17875.21612 eV
One Electron Energy:        -1204.08420212 Eh          -32764.79687 eV
Two Electron Energy:          547.18205710 Eh           14889.58075 eV

Virial components:
Potential Energy   :         -609.13815517 Eh          -16575.49188 eV
Kinetic Energy     :          168.51411166 Eh            4585.50210 eV
Virial Ratio       :            3.61476050


DFT components:
N(Alpha)           :       27.999983348655 electrons
N(Beta)            :       27.999983348655 electrons
N(Total)           :       55.999966697310 electrons
E(X)               :      -39.594617315251 Eh       
E(C)               :       -2.460452071319 Eh       
E(XC)              :      -42.055069386569 Eh       
DFET-embed. en.    :        0.000000000000 Eh       

---------------
SCF CONVERGENCE
---------------

  Last Energy change         ...   -1.8379e-07  Tolerance :   1.0000e-06
  Last MAX-Density change    ...    3.6216e-05  Tolerance :   1.0000e-05
  Last RMS-Density change    ...    1.1216e-06  Tolerance :   1.0000e-06
  Last DIIS Error            ...    3.0880e-05  Tolerance :   1.0000e-06

             **** THE GBW FILE WAS UPDATED (Ag03C1_D3H.gbw) ****
             **** DENSITY FILE WAS UPDATED (Ag03C1_D3H.scfp) ****
             **** ENERGY FILE WAS UPDATED (Ag03C1_D3H.en.tmp) ****
             **** THE GBW FILE WAS UPDATED (Ag03C1_D3H.gbw) ****
             **** DENSITY FILE WAS UPDATED (Ag03C1_D3H.scfp) ****
----------------
ORBITAL ENERGIES
----------------

  NO   OCC          E(Eh)            E(eV) 
   0   2.0000      -3.788709      -103.0960 
   1   2.0000      -3.788220      -103.0827 
   2   2.0000      -3.788217      -103.0826 
   3   2.0000      -2.416086       -65.7450 
   4   2.0000      -2.413099       -65.6638 
   5   2.0000      -2.413094       -65.6636 
   6   2.0000      -2.410394       -65.5901 
   7   2.0000      -2.410383       -65.5899 
   8   2.0000      -2.410106       -65.5823 
   9   2.0000      -2.408489       -65.5383 
  10   2.0000      -2.407952       -65.5237 
  11   2.0000      -2.407949       -65.5236 
  12   2.0000      -0.519887       -14.1468 
  13   2.0000      -0.500286       -13.6135 
  14   2.0000      -0.500282       -13.6134 
  15   2.0000      -0.494274       -13.4499 
  16   2.0000      -0.480260       -13.0685 
  17   2.0000      -0.476115       -12.9557 
  18   2.0000      -0.476106       -12.9555 
  19   2.0000      -0.458126       -12.4662 
  20   2.0000      -0.458126       -12.4662 
  21   2.0000      -0.453870       -12.3504 
  22   2.0000      -0.451762       -12.2931 
  23   2.0000      -0.451736       -12.2924 
  24   2.0000      -0.451295       -12.2804 
  25   2.0000      -0.451281       -12.2800 
  26   2.0000      -0.436467       -11.8769 
  27   2.0000      -0.408197       -11.1076 
  28   0.0000      -0.289585        -7.8800 
  29   0.0000      -0.289583        -7.8800 
  30   0.0000      -0.212588        -5.7848 
  31   0.0000      -0.183153        -4.9839 
  32   0.0000      -0.170073        -4.6279 
  33   0.0000      -0.170072        -4.6279 
  34   0.0000      -0.120618        -3.2822 
  35   0.0000      -0.120617        -3.2822 
  36   0.0000      -0.056977        -1.5504 
  37   0.0000      -0.056977        -1.5504 
  38   0.0000      -0.054634        -1.4867 
  39   0.0000      -0.046894        -1.2760 
  40   0.0000       0.006470         0.1761 
  41   0.0000       0.008444         0.2298 
  42   0.0000       0.020412         0.5554 
  43   0.0000       0.020413         0.5555 
  44   0.0000       0.027891         0.7589 
  45   0.0000       0.027891         0.7590 
  46   0.0000       0.066098         1.7986 
  47   0.0000       0.066098         1.7986 
  48   0.0000       0.129084         3.5125 
  49   0.0000       0.165428         4.5015 
  50   0.0000       0.174560         4.7500 
  51   0.0000       0.174564         4.7501 
  52   0.0000       0.203147         5.5279 
  53   0.0000       0.203151         5.5280 
  54   0.0000       0.211776         5.7627 
  55   0.0000       0.308021         8.3817 
  56   0.0000       0.308022         8.3817 
  57   0.0000       0.350796         9.5456 
  58   0.0000       0.367776        10.0077 
  59   0.0000       0.403295        10.9742 
  60   0.0000       0.403296        10.9743 
  61   0.0000       0.407385        11.0855 
  62   0.0000       0.407389        11.0856 
  63   0.0000       0.485410        13.2087 
  64   0.0000       0.485414        13.2088 
  65   0.0000       0.538919        14.6647 
  66   0.0000       1.235415        33.6173 
  67   0.0000       1.235429        33.6177 
  68   0.0000       1.271164        34.5901 
  69   0.0000       1.281377        34.8680 
  70   0.0000       1.310579        35.6627 
  71   0.0000       1.311957        35.7002 
  72   0.0000       1.311986        35.7010 
  73   0.0000       1.336625        36.3714 
  74   0.0000       1.336632        36.3716 
  75   0.0000       1.340791        36.4848 
  76   0.0000       1.354963        36.8704 
  77   0.0000       1.354977        36.8708 
  78   0.0000       1.356112        36.9017 
  79   0.0000       1.363730        37.1090 
  80   0.0000       1.363747        37.1094 
  81   0.0000       1.380205        37.5573 
  82   0.0000       1.380210        37.5574 
  83   0.0000       1.388432        37.7811 
  84   0.0000       1.394630        37.9498 
  85   0.0000       1.394645        37.9502 
  86   0.0000       1.405806        38.2539 
  87   0.0000       1.447158        39.3792 
  88   0.0000       1.455167        39.5971 
  89   0.0000       1.455198        39.5979 
  90   0.0000       1.478959        40.2445 
  91   0.0000       1.492422        40.6109 
  92   0.0000       1.492446        40.6115 
  93   0.0000       1.519971        41.3605 
  94   0.0000       1.519974        41.3606 
  95   0.0000       1.674694        45.5707 
  96   0.0000       1.711067        46.5605 
  97   0.0000       1.800774        49.0016 
  98   0.0000       1.810848        49.2757 
  99   0.0000       1.810917        49.2776 
 100   0.0000       1.843206        50.1562 
 101   0.0000       1.843258        50.1576 
 102   0.0000       1.845803        50.2268 
 103   0.0000       1.858999        50.5859 
 104   0.0000       1.871328        50.9214 
 105   0.0000       1.871435        50.9243 
 106   0.0000       1.886584        51.3366 
 107   0.0000       1.886705        51.3399 
 108   0.0000       1.982118        53.9362 
 109   0.0000       1.982189        53.9381 
 110   0.0000       2.009287        54.6755 
 111   0.0000       2.126149        57.8555 
 112   0.0000       2.300492        62.5996 
 113   0.0000       2.300519        62.6003 
 114   0.0000       4.476701       121.8172 
 115   0.0000       4.493750       122.2812 
 116   0.0000       4.493822       122.2831 
 117   0.0000       4.504780       122.5813 
 118   0.0000       4.507150       122.6458 
 119   0.0000       4.507236       122.6481 
 120   0.0000       4.515052       122.8608 
 121   0.0000       4.530879       123.2915 
 122   0.0000       4.534918       123.4014 
 123   0.0000       4.534970       123.4028 
 124   0.0000       4.543310       123.6297 
 125   0.0000       4.543400       123.6322 
 126   0.0000       4.548726       123.7771 
 127   0.0000       4.591470       124.9403 
 128   0.0000       4.613196       125.5314 
 129   0.0000       4.613266       125.5333 
 130   0.0000       4.615780       125.6018 
 131   0.0000       4.615963       125.6068 
 132   0.0000       4.775416       129.9457 
 133   0.0000       4.775429       129.9460 
 134   0.0000       4.791626       130.3868 
 135   0.0000       5.307925       144.4360 
 136   0.0000       5.309026       144.4659 
 137   0.0000       5.309179       144.4701 
 138   0.0000       5.309666       144.4834 
 139   0.0000       5.309989       144.4922 
 140   0.0000       5.310294       144.5004 
 141   0.0000       5.310478       144.5055 
 142   0.0000       5.310618       144.5093 
 143   0.0000       5.310940       144.5180 
 144   0.0000       5.310969       144.5188 
 145   0.0000       5.311510       144.5335 
 146   0.0000       5.311585       144.5356 
 147   0.0000       5.312048       144.5482 
 148   0.0000       5.312510       144.5607 
 149   0.0000       5.312588       144.5629 
 150   0.0000       5.313256       144.5811 
 151   0.0000       5.313925       144.5992 
 152   0.0000       5.314521       144.6155 
 153   0.0000       5.314573       144.6169 
 154   0.0000       5.314607       144.6178 
 155   0.0000       5.314619       144.6181 
 156   0.0000       5.314660       144.6192 
 157   0.0000       5.314926       144.6265 
 158   0.0000       5.315157       144.6328 
 159   0.0000       5.316433       144.6675 
 160   0.0000       5.323793       144.8678 
 161   0.0000       5.323960       144.8723 
 162   0.0000      33.063525       899.7042 
 163   0.0000      33.400785       908.8816 
 164   0.0000      33.400788       908.8817 
 165   0.0000     110.495238      3006.7283 
 166   0.0000     110.603399      3009.6715 
 167   0.0000     110.603402      3009.6716 

                    ********************************
                    * MULLIKEN POPULATION ANALYSIS *
                    ********************************

-----------------------
MULLIKEN ATOMIC CHARGES
-----------------------
   0 Ag:    0.333350
   1 Ag:    0.333323
   2 Ag:    0.333327
Sum of atomic charges:    1.0000000

--------------------------------
MULLIKEN REDUCED ORBITAL CHARGES
--------------------------------
  0 Ags       :     2.666133  s :     2.666133
      pz      :     2.012969  p :     6.093616
      px      :     2.015528
      py      :     2.065120
      dz2     :     1.990427  d :     9.904982
      dxz     :     1.995737
      dyz     :     1.990786
      dx2y2   :     1.984510
      dxy     :     1.943522
      f0      :     0.000172  f :     0.001897
      f+1     :     0.000113
      f-1     :     0.000302
      f+2     :     0.000108
      f-2     :     0.000224
      f+3     :     0.000575
      f-3     :     0.000403
      g0      :     0.000002  g :     0.000022
      g+1     :     0.000001
      g-1     :     0.000002
      g+2     :     0.000001
      g-2     :     0.000003
      g+3     :     0.000002
      g-3     :     0.000000
      g+4     :     0.000004
      g-4     :     0.000005
  1 Ags       :     2.666154  s :     2.666154
      pz      :     2.012967  p :     6.093617
      px      :     2.052720
      py      :     2.027931
      dz2     :     1.990429  d :     9.904987
      dxz     :     1.992027
      dyz     :     1.994496
      dx2y2   :     1.953777
      dxy     :     1.974258
      f0      :     0.000172  f :     0.001897
      f+1     :     0.000255
      f-1     :     0.000160
      f+2     :     0.000195
      f-2     :     0.000137
      f+3     :     0.000575
      f-3     :     0.000403
      g0      :     0.000002  g :     0.000022
      g+1     :     0.000002
      g-1     :     0.000001
      g+2     :     0.000003
      g-2     :     0.000002
      g+3     :     0.000002
      g-3     :     0.000000
      g+4     :     0.000005
      g-4     :     0.000005
  2 Ags       :     2.666151  s :     2.666151
      pz      :     2.012967  p :     6.093616
      px      :     2.052719
      py      :     2.027930
      dz2     :     1.990429  d :     9.904987
      dxz     :     1.992027
      dyz     :     1.994496
      dx2y2   :     1.953777
      dxy     :     1.974258
      f0      :     0.000172  f :     0.001897
      f+1     :     0.000255
      f-1     :     0.000160
      f+2     :     0.000195
      f-2     :     0.000137
      f+3     :     0.000575
      f-3     :     0.000403
      g0      :     0.000002  g :     0.000022
      g+1     :     0.000002
      g-1     :     0.000001
      g+2     :     0.000003
      g-2     :     0.000002
      g+3     :     0.000002
      g-3     :     0.000000
      g+4     :     0.000005
      g-4     :     0.000005


                     *******************************
                     * LOEWDIN POPULATION ANALYSIS *
                     *******************************

----------------------
LOEWDIN ATOMIC CHARGES
----------------------
   0 Ag:    0.333342
   1 Ag:    0.333329
   2 Ag:    0.333329

-------------------------------
LOEWDIN REDUCED ORBITAL CHARGES
-------------------------------
  0 Ags       :     2.549181  s :     2.549181
      pz      :     2.015213  p :     6.179694
      px      :     2.027198
      py      :     2.137283
      dz2     :     2.000489  d :     9.935136
      dxz     :     1.995529
      dyz     :     1.988590
      dx2y2   :     1.987697
      dxy     :     1.962832
      f0      :     0.000222  f :     0.002620
      f+1     :     0.000164
      f-1     :     0.000353
      f+2     :     0.000133
      f-2     :     0.000306
      f+3     :     0.000923
      f-3     :     0.000518
      g0      :     0.000002  g :     0.000028
      g+1     :     0.000001
      g-1     :     0.000003
      g+2     :     0.000002
      g-2     :     0.000004
      g+3     :     0.000003
      g-3     :     0.000000
      g+4     :     0.000005
      g-4     :     0.000008
  1 Ags       :     2.549194  s :     2.549194
      pz      :     2.015211  p :     6.179692
      px      :     2.109761
      py      :     2.054720
      dz2     :     2.000488  d :     9.935137
      dxz     :     1.990328
      dyz     :     1.993792
      dx2y2   :     1.969053
      dxy     :     1.981476
      f0      :     0.000222  f :     0.002620
      f+1     :     0.000306
      f-1     :     0.000211
      f+2     :     0.000263
      f-2     :     0.000176
      f+3     :     0.000923
      f-3     :     0.000518
      g0      :     0.000002  g :     0.000028
      g+1     :     0.000003
      g-1     :     0.000002
      g+2     :     0.000003
      g-2     :     0.000002
      g+3     :     0.000003
      g-3     :     0.000001
      g+4     :     0.000007
      g-4     :     0.000006
  2 Ags       :     2.549194  s :     2.549194
      pz      :     2.015211  p :     6.179692
      px      :     2.109761
      py      :     2.054720
      dz2     :     2.000488  d :     9.935137
      dxz     :     1.990328
      dyz     :     1.993792
      dx2y2   :     1.969053
      dxy     :     1.981476
      f0      :     0.000222  f :     0.002620
      f+1     :     0.000306
      f-1     :     0.000211
      f+2     :     0.000263
      f-2     :     0.000176
      f+3     :     0.000923
      f-3     :     0.000518
      g0      :     0.000002  g :     0.000028
      g+1     :     0.000003
      g-1     :     0.000002
      g+2     :     0.000003
      g-2     :     0.000002
      g+3     :     0.000003
      g-3     :     0.000001
      g+4     :     0.000007
      g-4     :     0.000006


                      *****************************
                      * MAYER POPULATION ANALYSIS *
                      *****************************

  NA   - Mulliken gross atomic population
  ZA   - Total nuclear charge
  QA   - Mulliken gross atomic charge
  VA   - Mayer's total valence
  BVA  - Mayer's bonded valence
  FA   - Mayer's free valence

  ATOM       NA         ZA         QA         VA         BVA        FA
  0 Ag    18.6666    19.0000     0.3334     1.1548     1.1548    -0.0000
  1 Ag    18.6667    19.0000     0.3333     1.1547     1.1547     0.0000
  2 Ag    18.6667    19.0000     0.3333     1.1547     1.1547    -0.0000

  Mayer bond orders larger than 0.100000
B(  0-Ag,  1-Ag) :   0.5774 B(  0-Ag,  2-Ag) :   0.5774 B(  1-Ag,  2-Ag) :   0.5773 


-------
TIMINGS
-------

Total SCF time: 0 days 0 hours 0 min 3 sec 

Total time                  ....       3.419 sec
Sum of individual times     ....       3.300 sec  ( 96.5%)

Fock matrix formation       ....       1.379 sec  ( 40.3%)
  Split-RI-J                ....       0.865 sec  ( 62.7% of F)
  XC integration            ....       0.472 sec  ( 34.3% of F)
    Basis function eval.    ....       0.032 sec  (  6.8% of XC)
    Density eval.           ....       0.049 sec  ( 10.4% of XC)
    XC-Functional eval.     ....       0.021 sec  (  4.5% of XC)
    XC-Potential eval.      ....       0.102 sec  ( 21.7% of XC)
Diagonalization             ....       0.035 sec  (  1.0%)
Density matrix formation    ....       0.007 sec  (  0.2%)
Population analysis         ....       0.005 sec  (  0.1%)
Initial guess               ....       1.437 sec  ( 42.0%)
Orbital Transformation      ....       0.000 sec  (  0.0%)
Orbital Orthonormalization  ....       0.000 sec  (  0.0%)
DIIS solution               ....       0.015 sec  (  0.4%)
Grid generation             ....       0.422 sec  ( 12.4%)


-------------------------------------------------------------------------------
                          DFT DISPERSION CORRECTION                            
                                                                               
                              DFTD3 V3.1  Rev 1                                
                          USING Becke-Johnson damping                          
-------------------------------------------------------------------------------
The TPSS functional is recognized
Active option DFTDOPT                   ...         4   

molecular C6(AA) [au] = 2417.546456 


            DFT-D V3
 parameters
 s6 scaling factor         :     1.0000 
 a1 scaling factor         :     0.4535 
 s8 scaling factor         :     1.9435 
 a2 scaling factor         :     4.4752 
 ad hoc parameters k1-k3   :    16.0000     1.3333    -4.0000 

 Edisp/kcal,au: -3.600434723767  -0.005737657340 
 E6   /kcal   :  -1.088287035 
 E8   /kcal   :  -2.512147689 
 % E8         :  69.773454635 

-------------------------   ----------------
Dispersion correction           -0.005737657
-------------------------   ----------------


-------------------------   --------------------
FINAL SINGLE POINT ENERGY      -440.629781172910
-------------------------   --------------------


                            ***************************************
                            *     ORCA property calculations      *
                            ***************************************

                                    ---------------------
                                    Active property flags
                                    ---------------------
   (+) Dipole Moment


------------------------------------------------------------------------------
                       ORCA ELECTRIC PROPERTIES CALCULATION
------------------------------------------------------------------------------

Dipole Moment Calculation                       ... on
Quadrupole Moment Calculation                   ... off
Polarizability Calculation                      ... off
GBWName                                         ... Ag03C1_D3H.gbw
Electron density file                           ... Ag03C1_D3H.scfp
The origin for moment calculation is the CENTER OF MASS  = ( 0.000000,  0.000001  0.000000)

-------------
DIPOLE MOMENT
-------------
                                X             Y             Z
Electronic contribution:      0.00000       0.00001      -0.00000
Nuclear contribution   :      0.00000       0.00000       0.00000
                        -----------------------------------------
Total Dipole Moment    :      0.00000       0.00001      -0.00000
                        -----------------------------------------
Magnitude (a.u.)       :      0.00001
Magnitude (Debye)      :      0.00002



--------------------
Rotational spectrum 
--------------------
 
Rotational constants in cm-1:     0.044514     0.044514     0.022257 
Rotational constants in MHz :  1334.482437  1334.482320   667.241189 

 Dipole components along the rotational axes: 
x,y,z [a.u.] :     0.000007     0.000000    -0.000000 
x,y,z [Debye]:     0.000017     0.000000    -0.000000 

 

Timings for individual modules:

Sum of individual times         ...        4.967 sec (=   0.083 min)
GTO integral calculation        ...        1.115 sec (=   0.019 min)  22.5 %
SCF iterations                  ...        3.851 sec (=   0.064 min)  77.5 %
                             ****ORCA TERMINATED NORMALLY****
TOTAL RUN TIME: 0 days 0 hours 0 minutes 5 seconds 551 msec
