
                                 *****************
                                 * O   R   C   A *
                                 *****************

           --- An Ab Initio, DFT and Semiempirical electronic structure package ---

                  #######################################################
                  #                        -***-                        #
                  #          Department of theory and spectroscopy      #
                  #               Directorship: Frank Neese             #
                  #        Max Planck Institute fuer Kohlenforschung    #
                  #                Kaiser Wilhelm Platz 1               #
                  #                 D-45470 Muelheim/Ruhr               #
                  #                      Germany                        #
                  #                                                     #
                  #                  All rights reserved                #
                  #                        -***-                        #
                  #######################################################


                         Program Version 4.2.0 -  RELEASE  -


 With contributions from (in alphabetic order):
   Daniel Aravena         : Magnetic Suceptibility
   Michael Atanasov       : Ab Initio Ligand Field Theory (pilot matlab implementation)
   Alexander A. Auer      : GIAO ZORA, VPT2
   Ute Becker             : Parallelization
   Giovanni Bistoni       : ED, misc. LED, open-shell LED, HFLED
   Martin Brehm           : Molecular dynamics
   Dmytro Bykov           : SCF Hessian
   Vijay G. Chilkuri      : MRCI spin determinant printing, contributions to CSF-ICE
   Dipayan Datta          : RHF DLPNO-CCSD density
   Achintya Kumar Dutta   : EOM-CC, STEOM-CC
   Dmitry Ganyushin       : Spin-Orbit,Spin-Spin,Magnetic field MRCI
   Miquel Garcia          : C-PCM Hessian, Gaussian charge scheme
   Yang Guo               : DLPNO-NEVPT2, CIM, IAO-localization
   Andreas Hansen         : Spin unrestricted coupled pair/coupled cluster methods
   Benjamin Helmich-Paris : CASSCF linear response (MC-RPA)
   Lee Huntington         : MR-EOM, pCC
   Robert Izsak           : Overlap fitted RIJCOSX, COSX-SCS-MP3, EOM
   Christian Kollmar      : KDIIS, OOCD, Brueckner-CCSD(T), CCSD density
   Simone Kossmann        : Meta GGA functionals, TD-DFT gradient, OOMP2, MP2 Hessian
   Martin Krupicka        : AUTO-CI
   Lucas Lang             : DCDCAS
   Dagmar Lenk            : GEPOL surface, SMD
   Dimitrios Liakos       : Extrapolation schemes; Compound Job, initial MDCI parallelization
   Dimitrios Manganas     : Further ROCIS development; embedding schemes
   Dimitrios Pantazis     : SARC Basis sets
   Taras Petrenko         : DFT Hessian,TD-DFT gradient, ASA, ECA, R-Raman, ABS, FL, XAS/XES, NRVS
   Peter Pinski           : DLPNO-MP2, DLPNO-MP2 Gradient
   Christoph Reimann      : Effective Core Potentials
   Marius Retegan         : Local ZFS, SOC
   Christoph Riplinger    : Optimizer, TS searches, QM/MM, DLPNO-CCSD(T), (RO)-DLPNO pert. Triples
   Tobias Risthaus        : Range-separated hybrids, TD-DFT gradient, RPA, STAB
   Michael Roemelt        : Original ROCIS implementation
   Masaaki Saitow         : Open-shell DLPNO-CCSD energy and density
   Barbara Sandhoefer     : DKH picture change effects
   Avijit Sen             : IP-ROCIS
   Kantharuban Sivalingam : CASSCF convergence, NEVPT2, FIC-MRCI
   Bernardo de Souza      : ESD, SOC TD-DFT
   Georgi Stoychev        : AutoAux, RI-MP2 NMR
   Willem Van den Heuvel  : Paramagnetic NMR
   Boris Wezisla          : Elementary symmetry handling
   Frank Wennmohs         : Technical directorship


 We gratefully acknowledge several colleagues who have allowed us to
 interface, adapt or use parts of their codes:
   Stefan Grimme, W. Hujo, H. Kruse,             : VdW corrections, initial TS optimization,
                  C. Bannwarth                     DFT functionals, gCP, sTDA/sTD-DF
   Ed Valeev, F. Pavosevic, A. Kumar             : LibInt (2-el integral package), F12 methods
   Garnet Chan, S. Sharma, J. Yang, R. Olivares  : DMRG
   Ulf Ekstrom                                   : XCFun DFT Library
   Mihaly Kallay                                 : mrcc  (arbitrary order and MRCC methods)
   Andreas Klamt, Michael Diedenhofen            : otool_cosmo (COSMO solvation model)
   Jiri Pittner, Ondrej Demel                    : Mk-CCSD
   Frank Weinhold                                : gennbo (NPA and NBO analysis)
   Christopher J. Cramer and Donald G. Truhlar   : smd solvation model
   Lars Goerigk                                  : TD-DFT with DH, B97 family of functionals
   V. Asgeirsson, H. Jonsson                     : NEB implementation
   FAccTs GmbH                                   : IRC, NEB, NEB-TS, Multilevel, MM, QM/MM, CI optimization
   S Lehtola, MJT Oliveira, MAL Marques          : LibXC Library


 Your calculation uses the libint2 library for the computation of 2-el integrals
 For citations please refer to: http://libint.valeyev.net

 Your ORCA version has been built with support for libXC version: 4.2.3
 For citations please refer to: https://tddft.org/programs/libxc/

 This ORCA versions uses:
   CBLAS   interface :  Fast vector & matrix operations
   LAPACKE interface :  Fast linear algebra routines
   SCALAPACK package :  Parallel linear algebra routines


Your calculation utilizes the atom-pairwise dispersion correction
with the Becke-Johnson damping scheme (D3BJ)
Cite in your paper:
S.Grimme, S.Ehrlich, L.Goerigk, J Comput Chem, (2011), 32, 1456–1465 
S.Grimme, J.Antony, S.Ehrlich and H.Krieg, J.Chem.Phys., 132, (2010), 154104 
   

----- Orbital basis set information -----
Your calculation utilizes the basis: def2-TZVPPD
   F. Weigend and R. Ahlrichs, Phys. Chem. Chem. Phys. 7, 3297 (2005).
   D. Rappoport and F. Furche, J. Chem. Phys. 133 134105 (2010).

----- AuxJ basis set information -----
Your calculation utilizes the auxiliary basis: def2/J
   F. Weigend, Phys. Chem. Chem. Phys. 8, 1057 (2006).

cite the ECPs for Ag [Def2-ECP] as follows:
Ce-Yb(ecp-28): M. Dolg, H. Stoll, H.Preuss, J. Chem. Phys., 1989, 90, 1730-1734.
Y-Cd(ecp-28), Hf-Hg(ecp-46): D. Andrae,U. Haeussermann, M. Dolg, H. Stoll, H. Preuss, Theor. Chim. Acta, 1990, 77, 123-141.
In-Sb(ecp-28), Tl-Bi(ecp-46): B. Metz, H. Stoll, M. Dolg, J. Chem. Phys., 2000, 113, 2563-2569.
Te-Xe(ecp-28), Po-Rn(ecp-46): K. A. Peterson, D. Figgen, E. Goll, H. Stoll, M. Dolg, J. Chem. Phys., 2003, 119, 11113-11123.
Rb(ecp-28), Cs(ecp-46): T. Leininger, A. Nicklass, W. Kuechle, H. Stoll, M. Dolg, A. Bergner, Chem. Phys. Lett., 1996, 255, 274-280.
Sr(ecp-28), Ba(ecp-46): M. Kaupp, P. V. Schleyer, H. Stoll and H. Preuss, J. Chem. Phys., 1991, 94, 1360-1366.
La(ecp-46): M. Dolg, H. Stoll, A. Savin, H. Preuss, Theor. Chim. Acta, 1989, 75, 173-194.
Lu(ecp-28): X. Cao, M. Dolg, J. Chem. Phys., 2001, 115, 7348-7355.

ECP parameters for Ag [Def2-ECP] have been obtained from:
TURBOMOLE (7.0.2)

================================================================================
                                        WARNINGS
                       Please study these warnings very carefully!
================================================================================


WARNING: your system is open-shell and RHF/RKS was chosen
  ===> : WILL SWITCH to UHF/UKS


INFO   : the flag for use of LIBINT has been found!

================================================================================
                                       INPUT FILE
================================================================================
NAME = Ag04C2_H_A.in
|  1> #
|  2> # Ag04C2_H_A TPSS-D3BJ/Def2-TZVPPD
|  3> #
|  4> ! tpss d3bj def2-tzvppd def2/j grid4 nofinalgrid
|  5> 
|  6> *xyz 2 2
|  7> Ag       0.000000    0.000000    1.733523 
|  8> Ag       0.000000    1.616553   -0.602470 
|  9> Ag      -1.399976   -0.808277   -0.602470 
| 10> Ag       1.399976   -0.808277   -0.602470 
| 11> H        0.000000    0.000000    3.472645 
| 12> *
| 13> 
| 14> %maxcore 5000
| 15> 
| 16> %pal
| 17> nprocs = 24
| 18> end
| 19> 
| 20> 
| 21>                          ****END OF INPUT****
================================================================================

                       ****************************
                       * Single Point Calculation *
                       ****************************

---------------------------------
CARTESIAN COORDINATES (ANGSTROEM)
---------------------------------
  Ag     0.000000    0.000000    1.733523
  Ag     0.000000    1.616553   -0.602470
  Ag    -1.399976   -0.808277   -0.602470
  Ag     1.399976   -0.808277   -0.602470
  H      0.000000    0.000000    3.472645

----------------------------
CARTESIAN COORDINATES (A.U.)
----------------------------
  NO LB      ZA    FRAG     MASS         X           Y           Z
   0 Ag   19.0000*   0   107.870    0.000000    0.000000    3.275884
   1 Ag   19.0000*   0   107.870    0.000000    3.054842   -1.138503
   2 Ag   19.0000*   0   107.870   -2.645571   -1.527422   -1.138503
   3 Ag   19.0000*   0   107.870    2.645571   -1.527422   -1.138503
   4 H     1.0000    0     1.008    0.000000    0.000000    6.562348
* core charge reduced due to ECP

--------------------------------
INTERNAL COORDINATES (ANGSTROEM)
--------------------------------
 Ag     0   0   0     0.000000000000     0.00000000     0.00000000
 Ag     1   0   0     2.840793357120     0.00000000     0.00000000
 Ag     2   1   0     2.799952379859    60.47444948     0.00000000
 Ag     3   2   1     2.799952000000    60.00000449   289.08611978
 H      1   2   3     1.739122000000   145.31600538   215.07321588

---------------------------
INTERNAL COORDINATES (A.U.)
---------------------------
 Ag     0   0   0     0.000000000000     0.00000000     0.00000000
 Ag     1   0   0     5.368321448020     0.00000000     0.00000000
 Ag     2   1   0     5.291143185954    60.47444948     0.00000000
 Ag     3   2   1     5.291142468125    60.00000449   289.08611978
 H      1   2   3     3.286464293477   145.31600538   215.07321588

---------------------
BASIS SET INFORMATION
---------------------
There are 2 groups of distinct atoms

 Group   1 Type Ag  : 7s7p6d2f1g contracted to 6s4p3d2f1g pattern {211111/4111/411/11/1}
 Group   2 Type H   : 5s3p1d contracted to 3s3p1d pattern {311/111/1}

Atom   0Ag   basis set group =>   1
Atom   1Ag   basis set group =>   1
Atom   2Ag   basis set group =>   1
Atom   3Ag   basis set group =>   1
Atom   4H    basis set group =>   2
---------------------------------
AUXILIARY/J BASIS SET INFORMATION
---------------------------------
There are 2 groups of distinct atoms

 Group   1 Type Ag  : 11s5p5d3f3g contracted to 8s5p5d2f3g pattern {41111111/11111/11111/21/111}
 Group   2 Type H   : 5s2p1d contracted to 3s1p1d pattern {311/2/1}

Atom   0Ag   basis set group =>   1
Atom   1Ag   basis set group =>   1
Atom   2Ag   basis set group =>   1
Atom   3Ag   basis set group =>   1
Atom   4H    basis set group =>   2
-------------------------
ECP PARAMETER INFORMATION
-------------------------

 Group 1, Type Ag ECP Def2-ECP (replacing 28 core electrons, lmax=3)

Atom   0Ag   ECP group =>   1
Atom   1Ag   ECP group =>   1
Atom   2Ag   ECP group =>   1
Atom   3Ag   ECP group =>   1



           ************************************************************
           *        Program running with 24 parallel MPI-processes    *
           *              working on a common directory               *
           ************************************************************
------------------------------------------------------------------------------
                           ORCA GTO INTEGRAL CALCULATION
                           -- RI-GTO INTEGRALS CHOSEN --
------------------------------------------------------------------------------

                         BASIS SET STATISTICS AND STARTUP INFO

Gaussian basis set:
 # of primitive gaussian shells          ...  101
 # of primitive gaussian functions       ...  343
 # of contracted shells                  ...   71
 # of contracted basis functions         ...  241
 Highest angular momentum                ...    4
 Maximum contraction depth               ...    4
Auxiliary gaussian basis set:
 # of primitive gaussian shells          ...  116
 # of primitive gaussian functions       ...  412
 # of contracted shells                  ...   97
 # of contracted aux-basis functions     ...  367
 Highest angular momentum                ...    4
 Maximum contraction depth               ...    4
Ratio of auxiliary to basis functions    ...  1.52
Integral package used                  ... LIBINT
 One Electron integrals                  
   ECP integrals                         ... done
 Ordering auxiliary basis shells         ... done
 Integral threshhold             Thresh  ...  1.000e-10
 Primitive cut-off               TCut    ...  1.000e-11
 Pre-screening matrix                    ... done
 Shell pair data                         ... 
 Ordering of the shell pairs             ... done (   0.000 sec) 2385 of 2556 pairs
 Determination of significant pairs      ... done (   0.000 sec)
 Creation of shell pair data             ... done (   0.000 sec)
 Storage of shell pair data              ... done (   0.004 sec)
 Shell pair data done in (   0.005 sec)
 Computing two index integrals           ... done
 Cholesky decomposition of the V-matrix  ... done


Timings:
 Total evaluation time                   ...   1.007 sec (  0.017 min)
 One electron matrix time                ...   0.777 sec (  0.013 min) = 77.2%
 Schwartz matrix evaluation time         ...   0.197 sec (  0.003 min) = 19.6%
 Two index repulsion integral time       ...   0.002 sec (  0.000 min) =  0.2%
 Cholesky decomposition of V             ...   0.002 sec (  0.000 min) =  0.2%
 Three index repulsion integral time     ...   0.000 sec (  0.000 min) =  0.0%



           ************************************************************
           *        Program running with 24 parallel MPI-processes    *
           *              working on a common directory               *
           ************************************************************
-------------------------------------------------------------------------------
                                 ORCA SCF
-------------------------------------------------------------------------------

------------
SCF SETTINGS
------------
Hamiltonian:
 Density Functional     Method          .... DFT(GTOs)
 Exchange Functional    Exchange        .... TPSS
 Correlation Functional Correlation     .... TPSS
 LDA part of GGA corr.  LDAOpt          .... PW91-LDA
 Gradients option       PostSCFGGA      .... off
   Density functional embedding theory  .... OFF
   NL short-range parameter             ....  5.000000
 RI-approximation to the Coulomb term is turned on
   Number of auxiliary basis functions  .... 367


General Settings:
 Integral files         IntName         .... Ag04C2_H_A
 Hartree-Fock type      HFTyp           .... UHF
 Total Charge           Charge          ....    2
 Multiplicity           Mult            ....    2
 Number of Electrons    NEL             ....   75
 Basis Dimension        Dim             ....  241
 Nuclear Repulsion      ENuc            ....    419.0822000634 Eh

Convergence Acceleration:
 DIIS                   CNVDIIS         .... on
   Start iteration      DIISMaxIt       ....    12
   Startup error        DIISStart       ....  0.200000
   # of expansion vecs  DIISMaxEq       ....     5
   Bias factor          DIISBfac        ....   1.050
   Max. coefficient     DIISMaxC        ....  10.000
 Newton-Raphson         CNVNR           .... off
 SOSCF                  CNVSOSCF        .... off
 Level Shifting         CNVShift        .... on
   Level shift para.    LevelShift      ....    0.2500
   Turn off err/grad.   ShiftErr        ....    0.0010
 Zerner damping         CNVZerner       .... off
 Static damping         CNVDamp         .... on
   Fraction old density DampFac         ....    0.7000
   Max. Damping (<1)    DampMax         ....    0.9800
   Min. Damping (>=0)   DampMin         ....    0.0000
   Turn off err/grad.   DampErr         ....    0.1000
 Fernandez-Rico         CNVRico         .... off

SCF Procedure:
 Maximum # iterations   MaxIter         ....   125
 SCF integral mode      SCFMode         .... Direct
   Integral package                     .... LIBINT
 Reset frequency        DirectResetFreq ....    20
 Integral Threshold     Thresh          ....  1.000e-10 Eh
 Primitive CutOff       TCut            ....  1.000e-11 Eh

Convergence Tolerance:
 Convergence Check Mode ConvCheckMode   .... Total+1el-Energy
 Convergence forced     ConvForced      .... 0
 Energy Change          TolE            ....  1.000e-06 Eh
 1-El. energy change                    ....  1.000e-03 Eh
 DIIS Error             TolErr          ....  1.000e-06


Diagonalization of the overlap matrix:
Smallest eigenvalue                        ... 1.402e-03
Time for diagonalization                   ...    0.010 sec
Threshold for overlap eigenvalues          ... 1.000e-08
Number of eigenvalues below threshold      ... 0
Time for construction of square roots      ...    0.007 sec
Total time needed                          ...    0.017 sec

-------------------
DFT GRID GENERATION
-------------------

General Integration Accuracy     IntAcc      ...  4.670
Radial Grid Type                 RadialGrid  ... Gauss-Chebyshev
Angular Grid (max. acc.)         AngularGrid ... Lebedev-302
Angular grid pruning method      GridPruning ... 3 (G Style)
Weight generation scheme         WeightScheme... Becke
Basis function cutoff            BFCut       ...    1.0000e-10
Integration weight cutoff        WCut        ...    1.0000e-14
Grids for H and He will be reduced by one unit

# of grid points (after initial pruning)     ...  46026 (   0.0 sec)
# of grid points (after weights+screening)   ...  45291 (   0.0 sec)
nearest neighbour list constructed           ...    0.0 sec
Grid point re-assignment to atoms done       ...    0.0 sec
Grid point division into batches done        ...    0.3 sec
Reduced shell lists constructed in    0.3 sec

Total number of grid points                  ...    45291
Total number of batches                      ...      711
Average number of points per batch           ...       63
Average number of grid points per atom       ...     9058
Average number of shells per batch           ...    44.90 (63.24%)
Average number of basis functions per batch  ...   149.48 (62.03%)
Average number of large shells per batch     ...    35.81 (79.74%)
Average number of large basis fcns per batch ...   113.87 (76.18%)
Maximum spatial batch extension              ...   5.57,  5.99,  3.19 au
Average spatial batch extension              ...   0.12,  0.12,  0.09 au

Time for grid setup =    0.389 sec

------------------------------
INITIAL GUESS: MODEL POTENTIAL
------------------------------
Loading Hartree-Fock densities                     ... done
  calling /sw/apps/orca/orca_4_2_0_linux_x86-64_openmpi314/orca Ag04C2_H_A_atom47.inp > Ag04C2_H_A_atom47.out in order to generate an atomic fitting density for atom 0 (Ag with ECP) on-the-fly... 
    atom 0 (Ag), assumed electronic state with S=2: 1s2 2s2 2p6 3s2 3p6 4s2 3d10 4p6 5s2 4d9           ... done
Calculating cut-offs                               ... done
Setting up the integral package                    ... done
Initializing the effective Hamiltonian             ... done
Starting the Coulomb interaction                   ... done (   0.0 sec)
Reading the grid                                   ... done
Mapping shells                                     ... done
Starting the XC term evaluation                    ... done (   0.0 sec)
  promolecular density results
     # of electrons  =    189.001407544
     EX              =   -574.056149056
     EC              =     -9.999316325
     EX+EC           =   -584.055465381
Transforming the Hamiltonian                       ... done (   0.0 sec)
Diagonalizing the Hamiltonian                      ... done (   0.0 sec)
Back transforming the eigenvectors                 ... done (   0.0 sec)
Now organizing SCF variables                       ... done
                      ------------------
                      INITIAL GUESS DONE (   1.6 sec)
                      ------------------
--------------
SCF ITERATIONS
--------------
ITER       Energy         Delta-E        Max-DP      RMS-DP      [F,P]     Damp
               ***  Starting incremental Fock matrix formation  ***
  0   -587.4468131296   0.000000000000 0.04554650  0.00082040  0.5153162 0.7000
  1   -587.5741398770  -0.127326747385 0.01969063  0.00040129  0.3360410 0.7000
  2   -587.6150066911  -0.040866814162 0.00867563  0.00015746  0.2225593 0.7000
                               ***Turning on DIIS***
  3   -587.6437134426  -0.028706751433 0.00618778  0.00011911  0.1528306 0.7000
  4   -587.6653107810  -0.021597338422 0.00661956  0.00009389  0.1071217 0.7000
  5   -587.6804861768  -0.015175395797 0.02044489  0.00023912  0.0750782 0.0000
  6   -587.7160974526  -0.035611275818 0.00549270  0.00003972  0.0023826 0.0000
  7   -587.7162156380  -0.000118185434 0.00215158  0.00002392  0.0016546 0.0000
  8   -587.7162732372  -0.000057599151 0.00331573  0.00002294  0.0011560 0.0000
  9   -587.7163034422  -0.000030205036 0.00115198  0.00001218  0.0012669 0.0000
 10   -587.7163182148  -0.000014772589 0.00374331  0.00002736  0.0004655 0.0000
 11   -587.7163275228  -0.000009307957 0.00074911  0.00000545  0.0003071 0.0000
 12   -587.7163281498  -0.000000626982 0.00020547  0.00000167  0.0001986 0.0000
 13   -587.7163282590  -0.000000109247 0.00010048  0.00000083  0.0000720 0.0000
                 **** Energy Check signals convergence ****

               *****************************************************
               *                     SUCCESS                       *
               *           SCF CONVERGED AFTER  14 CYCLES          *
               *****************************************************


----------------
TOTAL SCF ENERGY
----------------

Total Energy       :         -587.71632830 Eh          -15992.57434 eV

Components:
Nuclear Repulsion  :          419.08220006 Eh           11403.80642 eV
Electronic Energy  :        -1006.79852836 Eh          -27396.38076 eV
One Electron Energy:        -1853.08273141 Eh          -50424.94468 eV
Two Electron Energy:          846.28420304 Eh           23028.56391 eV

Virial components:
Potential Energy   :         -812.67493549 Eh          -22114.00925 eV
Kinetic Energy     :          224.95860719 Eh            6121.43491 eV
Virial Ratio       :            3.61255320


DFT components:
N(Alpha)           :       37.999991265899 electrons
N(Beta)            :       36.999992569687 electrons
N(Total)           :       74.999983835585 electrons
E(X)               :      -52.929624656217 Eh       
E(C)               :       -3.289162504751 Eh       
E(XC)              :      -56.218787160968 Eh       
DFET-embed. en.    :        0.000000000000 Eh       

---------------
SCF CONVERGENCE
---------------

  Last Energy change         ...   -4.0060e-08  Tolerance :   1.0000e-06
  Last MAX-Density change    ...    4.8057e-05  Tolerance :   1.0000e-05
  Last RMS-Density change    ...    3.6844e-07  Tolerance :   1.0000e-06
  Last DIIS Error            ...    4.8855e-05  Tolerance :   1.0000e-06

             **** THE GBW FILE WAS UPDATED (Ag04C2_H_A.gbw) ****
             **** DENSITY FILE WAS UPDATED (Ag04C2_H_A.scfp) ****
             **** ENERGY FILE WAS UPDATED (Ag04C2_H_A.en.tmp) ****
----------------------
UHF SPIN CONTAMINATION
----------------------

Warning: in a DFT calculation there is little theoretical justification to 
         calculate <S**2> as in Hartree-Fock theory. We will do it anyways
         but you should keep in mind that the values have only limited relevance

Expectation value of <S**2>     :     0.757471
Ideal value S*(S+1) for S=0.5   :     0.750000
Deviation                       :     0.007471

             **** THE GBW FILE WAS UPDATED (Ag04C2_H_A.gbw) ****
             **** DENSITY FILE WAS UPDATED (Ag04C2_H_A.scfp) ****
----------------
ORBITAL ENERGIES
----------------
                 SPIN UP ORBITALS
  NO   OCC          E(Eh)            E(eV) 
   0   1.0000      -3.988079      -108.5211 
   1   1.0000      -3.971054      -108.0579 
   2   1.0000      -3.970830      -108.0518 
   3   1.0000      -3.970827      -108.0517 
   4   1.0000      -2.617520       -71.2263 
   5   1.0000      -2.605405       -70.8967 
   6   1.0000      -2.605403       -70.8966 
   7   1.0000      -2.596572       -70.6563 
   8   1.0000      -2.594561       -70.6016 
   9   1.0000      -2.594561       -70.6016 
  10   1.0000      -2.592748       -70.5523 
  11   1.0000      -2.592744       -70.5522 
  12   1.0000      -2.592744       -70.5521 
  13   1.0000      -2.592132       -70.5355 
  14   1.0000      -2.592130       -70.5354 
  15   1.0000      -2.591833       -70.5274 
  16   1.0000      -0.741580       -20.1794 
  17   1.0000      -0.689247       -18.7554 
  18   1.0000      -0.685204       -18.6453 
  19   1.0000      -0.685183       -18.6448 
  20   1.0000      -0.674026       -18.3412 
  21   1.0000      -0.674019       -18.3410 
  22   1.0000      -0.673375       -18.3235 
  23   1.0000      -0.662155       -18.0181 
  24   1.0000      -0.662145       -18.0179 
  25   1.0000      -0.658503       -17.9188 
  26   1.0000      -0.645777       -17.5725 
  27   1.0000      -0.645772       -17.5723 
  28   1.0000      -0.639310       -17.3965 
  29   1.0000      -0.638715       -17.3803 
  30   1.0000      -0.638705       -17.3800 
  31   1.0000      -0.637482       -17.3468 
  32   1.0000      -0.637463       -17.3462 
  33   1.0000      -0.628869       -17.1124 
  34   1.0000      -0.628866       -17.1123 
  35   1.0000      -0.622898       -16.9499 
  36   1.0000      -0.612663       -16.6714 
  37   1.0000      -0.591423       -16.0934 
  38   0.0000      -0.463021       -12.5994 
  39   0.0000      -0.463019       -12.5994 
  40   0.0000      -0.429152       -11.6778 
  41   0.0000      -0.340689        -9.2706 
  42   0.0000      -0.337178        -9.1751 
  43   0.0000      -0.337177        -9.1751 
  44   0.0000      -0.321749        -8.7552 
  45   0.0000      -0.321748        -8.7552 
  46   0.0000      -0.259204        -7.0533 
  47   0.0000      -0.212690        -5.7876 
  48   0.0000      -0.212689        -5.7876 
  49   0.0000      -0.198350        -5.3974 
  50   0.0000      -0.194283        -5.2867 
  51   0.0000      -0.194281        -5.2867 
  52   0.0000      -0.192946        -5.2503 
  53   0.0000      -0.152510        -4.1500 
  54   0.0000      -0.137682        -3.7465 
  55   0.0000      -0.117066        -3.1855 
  56   0.0000      -0.109954        -2.9920 
  57   0.0000      -0.109952        -2.9919 
  58   0.0000      -0.104373        -2.8401 
  59   0.0000      -0.104373        -2.8401 
  60   0.0000      -0.087422        -2.3789 
  61   0.0000      -0.087419        -2.3788 
  62   0.0000      -0.068483        -1.8635 
  63   0.0000      -0.068482        -1.8635 
  64   0.0000      -0.067006        -1.8233 
  65   0.0000      -0.028022        -0.7625 
  66   0.0000      -0.028022        -0.7625 
  67   0.0000      -0.019123        -0.5204 
  68   0.0000      -0.004800        -0.1306 
  69   0.0000      -0.004792        -0.1304 
  70   0.0000      -0.001027        -0.0279 
  71   0.0000       0.026232         0.7138 
  72   0.0000       0.048434         1.3180 
  73   0.0000       0.048435         1.3180 
  74   0.0000       0.074355         2.0233 
  75   0.0000       0.143594         3.9074 
  76   0.0000       0.143595         3.9074 
  77   0.0000       0.147800         4.0218 
  78   0.0000       0.170346         4.6353 
  79   0.0000       0.173780         4.7288 
  80   0.0000       0.182698         4.9715 
  81   0.0000       0.182700         4.9715 
  82   0.0000       0.248211         6.7542 
  83   0.0000       0.248212         6.7542 
  84   0.0000       0.265484         7.2242 
  85   0.0000       0.265486         7.2242 
  86   0.0000       0.278262         7.5719 
  87   0.0000       0.311912         8.4876 
  88   0.0000       0.311922         8.4878 
  89   0.0000       0.346383         9.4256 
  90   0.0000       0.346385         9.4256 
  91   0.0000       0.362597         9.8668 
  92   0.0000       0.378629        10.3030 
  93   0.0000       0.593030        16.1372 
  94   0.0000       0.593032        16.1372 
  95   0.0000       0.685040        18.6409 
  96   0.0000       1.104979        30.0680 
  97   0.0000       1.105004        30.0687 
  98   0.0000       1.126102        30.6428 
  99   0.0000       1.126134        30.6437 
 100   0.0000       1.128473        30.7073 
 101   0.0000       1.136653        30.9299 
 102   0.0000       1.145753        31.1775 
 103   0.0000       1.145755        31.1776 
 104   0.0000       1.150311        31.3016 
 105   0.0000       1.154728        31.4218 
 106   0.0000       1.156957        31.4824 
 107   0.0000       1.156971        31.4828 
 108   0.0000       1.161716        31.6119 
 109   0.0000       1.161730        31.6123 
 110   0.0000       1.163641        31.6643 
 111   0.0000       1.169113        31.8132 
 112   0.0000       1.169135        31.8138 
 113   0.0000       1.175447        31.9855 
 114   0.0000       1.180135        32.1131 
 115   0.0000       1.196030        32.5456 
 116   0.0000       1.196035        32.5458 
 117   0.0000       1.199056        32.6280 
 118   0.0000       1.201151        32.6850 
 119   0.0000       1.201160        32.6852 
 120   0.0000       1.225712        33.3533 
 121   0.0000       1.225742        33.3541 
 122   0.0000       1.234498        33.5924 
 123   0.0000       1.247252        33.9395 
 124   0.0000       1.247279        33.9402 
 125   0.0000       1.265731        34.4423 
 126   0.0000       1.326679        36.1008 
 127   0.0000       1.326683        36.1009 
 128   0.0000       1.333699        36.2918 
 129   0.0000       1.337988        36.4085 
 130   0.0000       1.337989        36.4085 
 131   0.0000       1.393373        37.9156 
 132   0.0000       1.472957        40.0812 
 133   0.0000       1.472967        40.0815 
 134   0.0000       1.478083        40.2207 
 135   0.0000       1.534316        41.7509 
 136   0.0000       1.593629        43.3648 
 137   0.0000       1.654156        45.0119 
 138   0.0000       1.654177        45.0124 
 139   0.0000       1.656271        45.0694 
 140   0.0000       1.673064        45.5264 
 141   0.0000       1.673114        45.5278 
 142   0.0000       1.677996        45.6606 
 143   0.0000       1.684596        45.8402 
 144   0.0000       1.684653        45.8417 
 145   0.0000       1.751134        47.6508 
 146   0.0000       1.751178        47.6520 
 147   0.0000       1.767276        48.0900 
 148   0.0000       1.767334        48.0916 
 149   0.0000       1.770163        48.1686 
 150   0.0000       1.771447        48.2035 
 151   0.0000       1.771537        48.2060 
 152   0.0000       1.780041        48.4374 
 153   0.0000       1.798493        48.9395 
 154   0.0000       1.851046        50.3695 
 155   0.0000       1.851137        50.3720 
 156   0.0000       2.159994        58.7764 
 157   0.0000       2.269075        61.7447 
 158   0.0000       2.302916        62.6655 
 159   0.0000       2.302918        62.6656 
 160   0.0000       2.457803        66.8802 
 161   0.0000       2.868426        78.0538 
 162   0.0000       2.868436        78.0541 
 163   0.0000       3.005744        81.7905 
 164   0.0000       3.005812        81.7923 
 165   0.0000       3.454766        94.0089 
 166   0.0000       3.609490        98.2192 
 167   0.0000       3.609500        98.2195 
 168   0.0000       4.011989       109.1718 
 169   0.0000       4.319248       117.5327 
 170   0.0000       4.319318       117.5346 
 171   0.0000       4.333375       117.9171 
 172   0.0000       4.342347       118.1613 
 173   0.0000       4.342381       118.1622 
 174   0.0000       4.345171       118.2381 
 175   0.0000       4.346552       118.2757 
 176   0.0000       4.351811       118.4188 
 177   0.0000       4.351844       118.4197 
 178   0.0000       4.352978       118.4506 
 179   0.0000       4.362570       118.7116 
 180   0.0000       4.370966       118.9400 
 181   0.0000       4.370995       118.9408 
 182   0.0000       4.389458       119.4432 
 183   0.0000       4.390491       119.4713 
 184   0.0000       4.399151       119.7070 
 185   0.0000       4.399170       119.7075 
 186   0.0000       4.404620       119.8558 
 187   0.0000       4.404623       119.8559 
 188   0.0000       4.418705       120.2391 
 189   0.0000       4.418736       120.2399 
 190   0.0000       4.535692       123.4225 
 191   0.0000       4.539908       123.5372 
 192   0.0000       4.539942       123.5381 
 193   0.0000       4.540153       123.5439 
 194   0.0000       4.579685       124.6196 
 195   0.0000       4.579741       124.6211 
 196   0.0000       4.765281       129.6699 
 197   0.0000       5.119388       139.3056 
 198   0.0000       5.119519       139.3092 
 199   0.0000       5.120246       139.3290 
 200   0.0000       5.120402       139.3332 
 201   0.0000       5.120915       139.3472 
 202   0.0000       5.120941       139.3479 
 203   0.0000       5.126833       139.5082 
 204   0.0000       5.126978       139.5122 
 205   0.0000       5.127455       139.5252 
 206   0.0000       5.127471       139.5256 
 207   0.0000       5.127651       139.5305 
 208   0.0000       5.127837       139.5355 
 209   0.0000       5.128171       139.5446 
 210   0.0000       5.128480       139.5530 
 211   0.0000       5.128552       139.5550 
 212   0.0000       5.128708       139.5592 
 213   0.0000       5.129109       139.5702 
 214   0.0000       5.129161       139.5716 
 215   0.0000       5.129401       139.5781 
 216   0.0000       5.130111       139.5974 
 217   0.0000       5.130152       139.5985 
 218   0.0000       5.130376       139.6046 
 219   0.0000       5.130575       139.6101 
 220   0.0000       5.130700       139.6134 
 221   0.0000       5.130856       139.6177 
 222   0.0000       5.131272       139.6290 
 223   0.0000       5.131316       139.6302 
 224   0.0000       5.131475       139.6345 
 225   0.0000       5.132047       139.6501 
 226   0.0000       5.132109       139.6518 
 227   0.0000       5.139246       139.8460 
 228   0.0000       5.139402       139.8502 
 229   0.0000       5.145723       140.0222 
 230   0.0000       5.180081       140.9572 
 231   0.0000       5.180478       140.9680 
 232   0.0000       5.505780       149.8199 
 233   0.0000      32.917215       895.7229 
 234   0.0000      33.283634       905.6937 
 235   0.0000      33.283637       905.6938 
 236   0.0000      33.335484       907.1046 
 237   0.0000     110.321731      3002.0069 
 238   0.0000     110.440928      3005.2504 
 239   0.0000     110.440929      3005.2504 
 240   0.0000     110.447136      3005.4194 

                 SPIN DOWN ORBITALS
  NO   OCC          E(Eh)            E(eV) 
   0   1.0000      -3.984806      -108.4321 
   1   1.0000      -3.970890      -108.0534 
   2   1.0000      -3.970667      -108.0473 
   3   1.0000      -3.970664      -108.0472 
   4   1.0000      -2.609568       -71.0100 
   5   1.0000      -2.604461       -70.8710 
   6   1.0000      -2.604460       -70.8710 
   7   1.0000      -2.596116       -70.6439 
   8   1.0000      -2.594235       -70.5927 
   9   1.0000      -2.594235       -70.5927 
  10   1.0000      -2.592712       -70.5513 
  11   1.0000      -2.592710       -70.5512 
  12   1.0000      -2.592614       -70.5486 
  13   1.0000      -2.591949       -70.5305 
  14   1.0000      -2.591947       -70.5305 
  15   1.0000      -2.591843       -70.5276 
  16   1.0000      -0.716780       -19.5046 
  17   1.0000      -0.683651       -18.6031 
  18   1.0000      -0.683632       -18.6026 
  19   1.0000      -0.682651       -18.5759 
  20   1.0000      -0.672803       -18.3079 
  21   1.0000      -0.672796       -18.3077 
  22   1.0000      -0.659937       -17.9578 
  23   1.0000      -0.659450       -17.9446 
  24   1.0000      -0.659440       -17.9443 
  25   1.0000      -0.657803       -17.8997 
  26   1.0000      -0.643462       -17.5095 
  27   1.0000      -0.643458       -17.5094 
  28   1.0000      -0.638915       -17.3858 
  29   1.0000      -0.638340       -17.3701 
  30   1.0000      -0.638328       -17.3698 
  31   1.0000      -0.637082       -17.3359 
  32   1.0000      -0.637062       -17.3353 
  33   1.0000      -0.627423       -17.0730 
  34   1.0000      -0.627418       -17.0729 
  35   1.0000      -0.622815       -16.9476 
  36   1.0000      -0.606462       -16.5027 
  37   0.0000      -0.527141       -14.3442 
  38   0.0000      -0.461627       -12.5615 
  39   0.0000      -0.461625       -12.5615 
  40   0.0000      -0.410830       -11.1793 
  41   0.0000      -0.339633        -9.2419 
  42   0.0000      -0.333622        -9.0783 
  43   0.0000      -0.333621        -9.0783 
  44   0.0000      -0.318274        -8.6607 
  45   0.0000      -0.318274        -8.6607 
  46   0.0000      -0.236531        -6.4363 
  47   0.0000      -0.203303        -5.5322 
  48   0.0000      -0.203302        -5.5321 
  49   0.0000      -0.198027        -5.3886 
  50   0.0000      -0.193367        -5.2618 
  51   0.0000      -0.193365        -5.2617 
  52   0.0000      -0.181376        -4.9355 
  53   0.0000      -0.139898        -3.8068 
  54   0.0000      -0.128586        -3.4990 
  55   0.0000      -0.114648        -3.1197 
  56   0.0000      -0.104690        -2.8488 
  57   0.0000      -0.104689        -2.8487 
  58   0.0000      -0.103202        -2.8083 
  59   0.0000      -0.103201        -2.8083 
  60   0.0000      -0.085678        -2.3314 
  61   0.0000      -0.085674        -2.3313 
  62   0.0000      -0.058295        -1.5863 
  63   0.0000      -0.048670        -1.3244 
  64   0.0000      -0.048669        -1.3244 
  65   0.0000      -0.021230        -0.5777 
  66   0.0000      -0.021229        -0.5777 
  67   0.0000      -0.018576        -0.5055 
  68   0.0000      -0.003385        -0.0921 
  69   0.0000      -0.003377        -0.0919 
  70   0.0000       0.008169         0.2223 
  71   0.0000       0.034161         0.9296 
  72   0.0000       0.055085         1.4989 
  73   0.0000       0.055086         1.4990 
  74   0.0000       0.097982         2.6662 
  75   0.0000       0.148095         4.0299 
  76   0.0000       0.148097         4.0299 
  77   0.0000       0.170730         4.6458 
  78   0.0000       0.172367         4.6903 
  79   0.0000       0.186741         5.0815 
  80   0.0000       0.186745         5.0816 
  81   0.0000       0.190832         5.1928 
  82   0.0000       0.250713         6.8222 
  83   0.0000       0.250713         6.8222 
  84   0.0000       0.272608         7.4180 
  85   0.0000       0.272609         7.4181 
  86   0.0000       0.283273         7.7082 
  87   0.0000       0.317210         8.6317 
  88   0.0000       0.317222         8.6321 
  89   0.0000       0.362794         9.8721 
  90   0.0000       0.362798         9.8722 
  91   0.0000       0.363239         9.8842 
  92   0.0000       0.396716        10.7952 
  93   0.0000       0.648809        17.6550 
  94   0.0000       0.648810        17.6550 
  95   0.0000       0.727590        19.7987 
  96   0.0000       1.106434        30.1076 
  97   0.0000       1.106459        30.1083 
  98   0.0000       1.127879        30.6912 
  99   0.0000       1.127912        30.6920 
 100   0.0000       1.129788        30.7431 
 101   0.0000       1.136924        30.9373 
 102   0.0000       1.147143        31.2153 
 103   0.0000       1.147149        31.2155 
 104   0.0000       1.155372        31.4393 
 105   0.0000       1.157849        31.5067 
 106   0.0000       1.159465        31.5506 
 107   0.0000       1.159483        31.5511 
 108   0.0000       1.162836        31.6424 
 109   0.0000       1.162849        31.6427 
 110   0.0000       1.169034        31.8110 
 111   0.0000       1.170209        31.8430 
 112   0.0000       1.170230        31.8436 
 113   0.0000       1.177887        32.0519 
 114   0.0000       1.181333        32.1457 
 115   0.0000       1.196392        32.5555 
 116   0.0000       1.196396        32.5556 
 117   0.0000       1.200040        32.6547 
 118   0.0000       1.204688        32.7812 
 119   0.0000       1.204698        32.7815 
 120   0.0000       1.228153        33.4197 
 121   0.0000       1.228185        33.4206 
 122   0.0000       1.234863        33.6023 
 123   0.0000       1.250419        34.0256 
 124   0.0000       1.250450        34.0265 
 125   0.0000       1.268509        34.5179 
 126   0.0000       1.329446        36.1761 
 127   0.0000       1.329449        36.1762 
 128   0.0000       1.335529        36.3416 
 129   0.0000       1.339007        36.4362 
 130   0.0000       1.339009        36.4363 
 131   0.0000       1.413656        38.4675 
 132   0.0000       1.475767        40.1577 
 133   0.0000       1.475777        40.1579 
 134   0.0000       1.478709        40.2377 
 135   0.0000       1.545466        42.0543 
 136   0.0000       1.599784        43.5323 
 137   0.0000       1.656514        45.0760 
 138   0.0000       1.656534        45.0766 
 139   0.0000       1.657801        45.1111 
 140   0.0000       1.675971        45.6055 
 141   0.0000       1.676021        45.6069 
 142   0.0000       1.678469        45.6735 
 143   0.0000       1.685691        45.8700 
 144   0.0000       1.685740        45.8713 
 145   0.0000       1.752081        47.6765 
 146   0.0000       1.752123        47.6777 
 147   0.0000       1.767873        48.1063 
 148   0.0000       1.767937        48.1080 
 149   0.0000       1.770581        48.1800 
 150   0.0000       1.772496        48.2321 
 151   0.0000       1.772579        48.2343 
 152   0.0000       1.782343        48.5000 
 153   0.0000       1.813561        49.3495 
 154   0.0000       1.853975        50.4492 
 155   0.0000       1.854070        50.4518 
 156   0.0000       2.166123        58.9432 
 157   0.0000       2.301552        62.6284 
 158   0.0000       2.304647        62.7126 
 159   0.0000       2.304650        62.7127 
 160   0.0000       2.500861        68.0519 
 161   0.0000       2.930219        79.7353 
 162   0.0000       2.930252        79.7362 
 163   0.0000       3.064167        83.3802 
 164   0.0000       3.064236        83.3821 
 165   0.0000       3.488905        94.9379 
 166   0.0000       3.651313        99.3573 
 167   0.0000       3.651322        99.3575 
 168   0.0000       4.031519       109.7032 
 169   0.0000       4.320293       117.5612 
 170   0.0000       4.320362       117.5630 
 171   0.0000       4.333995       117.9340 
 172   0.0000       4.342730       118.1717 
 173   0.0000       4.342764       118.1726 
 174   0.0000       4.346831       118.2833 
 175   0.0000       4.348341       118.3244 
 176   0.0000       4.352181       118.4289 
 177   0.0000       4.352214       118.4298 
 178   0.0000       4.353482       118.4643 
 179   0.0000       4.363001       118.7233 
 180   0.0000       4.371674       118.9593 
 181   0.0000       4.371703       118.9601 
 182   0.0000       4.389786       119.4521 
 183   0.0000       4.391481       119.4983 
 184   0.0000       4.400290       119.7380 
 185   0.0000       4.400314       119.7386 
 186   0.0000       4.405310       119.8746 
 187   0.0000       4.405321       119.8749 
 188   0.0000       4.420588       120.2903 
 189   0.0000       4.420627       120.2914 
 190   0.0000       4.536348       123.4403 
 191   0.0000       4.540713       123.5591 
 192   0.0000       4.541071       123.5688 
 193   0.0000       4.541104       123.5697 
 194   0.0000       4.586281       124.7990 
 195   0.0000       4.586339       124.8006 
 196   0.0000       4.777357       129.9985 
 197   0.0000       5.121829       139.3720 
 198   0.0000       5.121942       139.3751 
 199   0.0000       5.122194       139.3820 
 200   0.0000       5.122518       139.3908 
 201   0.0000       5.125553       139.4734 
 202   0.0000       5.125667       139.4765 
 203   0.0000       5.127082       139.5150 
 204   0.0000       5.127185       139.5178 
 205   0.0000       5.127554       139.5278 
 206   0.0000       5.127714       139.5322 
 207   0.0000       5.127804       139.5346 
 208   0.0000       5.128117       139.5431 
 209   0.0000       5.128333       139.5490 
 210   0.0000       5.128704       139.5591 
 211   0.0000       5.128755       139.5605 
 212   0.0000       5.128882       139.5640 
 213   0.0000       5.129219       139.5731 
 214   0.0000       5.129488       139.5805 
 215   0.0000       5.129531       139.5816 
 216   0.0000       5.130444       139.6065 
 217   0.0000       5.130468       139.6071 
 218   0.0000       5.130644       139.6119 
 219   0.0000       5.130804       139.6163 
 220   0.0000       5.130915       139.6193 
 221   0.0000       5.131194       139.6269 
 222   0.0000       5.131609       139.6382 
 223   0.0000       5.131632       139.6388 
 224   0.0000       5.131761       139.6423 
 225   0.0000       5.132368       139.6588 
 226   0.0000       5.132447       139.6610 
 227   0.0000       5.139677       139.8577 
 228   0.0000       5.139828       139.8618 
 229   0.0000       5.146034       140.0307 
 230   0.0000       5.185191       141.0962 
 231   0.0000       5.185588       141.1070 
 232   0.0000       5.517189       150.1303 
 233   0.0000      32.917863       895.7406 
 234   0.0000      33.283805       905.6984 
 235   0.0000      33.283808       905.6985 
 236   0.0000      33.338024       907.1737 
 237   0.0000     110.322037      3002.0152 
 238   0.0000     110.441002      3005.2524 
 239   0.0000     110.441002      3005.2525 
 240   0.0000     110.448177      3005.4477 

                    ********************************
                    * MULLIKEN POPULATION ANALYSIS *
                    ********************************

--------------------------------------------
MULLIKEN ATOMIC CHARGES AND SPIN POPULATIONS
--------------------------------------------
   0 Ag:    0.354412    0.291384
   1 Ag:    0.477835    0.033159
   2 Ag:    0.477815    0.033159
   3 Ag:    0.477814    0.033162
   4 H :    0.212125    0.609136
Sum of atomic charges         :    2.0000000
Sum of atomic spin populations:    1.0000000

-----------------------------------------------------
MULLIKEN REDUCED ORBITAL CHARGES AND SPIN POPULATIONS
-----------------------------------------------------
CHARGE
  0 Ags       :     2.694842  s :     2.694842
      pz      :     2.145053  p :     6.177124
      px      :     2.016035
      py      :     2.016037
      dz2     :     1.866511  d :     9.771474
      dxz     :     1.960338
      dyz     :     1.960362
      dx2y2   :     1.992132
      dxy     :     1.992131
      f0      :     0.001046  f :     0.002114
      f+1     :     0.000295
      f-1     :     0.000295
      f+2     :     0.000202
      f-2     :     0.000202
      f+3     :     0.000032
      f-3     :     0.000040
      g0      :     0.000018  g :     0.000034
      g+1     :     0.000004
      g-1     :     0.000004
      g+2     :     0.000003
      g-2     :     0.000003
      g+3     :     0.000001
      g-3     :     0.000001
      g+4     :     0.000000
      g-4     :     0.000000
  1 Ags       :     2.526168  s :     2.526168
      pz      :     2.028035  p :     6.121239
      px      :     2.016390
      py      :     2.076814
      dz2     :     1.968434  d :     9.873428
      dxz     :     1.994280
      dyz     :     1.973806
      dx2y2   :     1.988233
      dxy     :     1.948674
      f0      :     0.000147  f :     0.001318
      f+1     :     0.000093
      f-1     :     0.000283
      f+2     :     0.000107
      f-2     :     0.000155
      f+3     :     0.000324
      f-3     :     0.000209
      g0      :     0.000001  g :     0.000013
      g+1     :     0.000000
      g-1     :     0.000002
      g+2     :     0.000002
      g-2     :     0.000002
      g+3     :     0.000001
      g-3     :     0.000000
      g+4     :     0.000002
      g-4     :     0.000003
  2 Ags       :     2.526181  s :     2.526181
      pz      :     2.028039  p :     6.121231
      px      :     2.061693
      py      :     2.031500
      dz2     :     1.968435  d :     9.873442
      dxz     :     1.978926
      dyz     :     1.989161
      dx2y2   :     1.958583
      dxy     :     1.978336
      f0      :     0.000147  f :     0.001318
      f+1     :     0.000236
      f-1     :     0.000141
      f+2     :     0.000143
      f-2     :     0.000119
      f+3     :     0.000324
      f-3     :     0.000209
      g0      :     0.000001  g :     0.000013
      g+1     :     0.000002
      g-1     :     0.000001
      g+2     :     0.000002
      g-2     :     0.000002
      g+3     :     0.000001
      g-3     :     0.000001
      g+4     :     0.000002
      g-4     :     0.000002
  3 Ags       :     2.526182  s :     2.526182
      pz      :     2.028039  p :     6.121232
      px      :     2.061693
      py      :     2.031500
      dz2     :     1.968435  d :     9.873442
      dxz     :     1.978926
      dyz     :     1.989161
      dx2y2   :     1.958583
      dxy     :     1.978336
      f0      :     0.000147  f :     0.001318
      f+1     :     0.000236
      f-1     :     0.000141
      f+2     :     0.000143
      f-2     :     0.000119
      f+3     :     0.000324
      f-3     :     0.000209
      g0      :     0.000001  g :     0.000013
      g+1     :     0.000002
      g-1     :     0.000001
      g+2     :     0.000002
      g-2     :     0.000002
      g+3     :     0.000001
      g-3     :     0.000001
      g+4     :     0.000002
      g-4     :     0.000002
  4 H s       :     0.779375  s :     0.779375
      pz      :     0.000910  p :     0.006781
      px      :     0.002937
      py      :     0.002934
      dz2     :     0.000777  d :     0.001720
      dxz     :     0.000443
      dyz     :     0.000443
      dx2y2   :     0.000028
      dxy     :     0.000028

SPIN
  0 Ags       :     0.115972  s :     0.115972
      pz      :     0.102064  p :     0.102686
      px      :     0.000311
      py      :     0.000311
      dz2     :     0.070355  d :     0.072277
      dxz     :     0.000434
      dyz     :     0.000434
      dx2y2   :     0.000527
      dxy     :     0.000527
      f0      :     0.000457  f :     0.000445
      f+1     :    -0.000002
      f-1     :    -0.000002
      f+2     :    -0.000004
      f-2     :    -0.000004
      f+3     :     0.000000
      f-3     :     0.000000
      g0      :     0.000005  g :     0.000005
      g+1     :     0.000000
      g-1     :     0.000000
      g+2     :    -0.000001
      g-2     :    -0.000000
      g+3     :    -0.000000
      g-3     :     0.000000
      g+4     :     0.000000
      g-4     :     0.000000
  1 Ags       :     0.021237  s :     0.021237
      pz      :     0.002509  p :     0.007962
      px      :     0.000068
      py      :     0.005385
      dz2     :     0.004418  d :     0.003959
      dxz     :    -0.000167
      dyz     :    -0.001487
      dx2y2   :     0.001860
      dxy     :    -0.000665
      f0      :     0.000005  f :     0.000001
      f+1     :    -0.000000
      f-1     :    -0.000008
      f+2     :     0.000003
      f-2     :    -0.000000
      f+3     :    -0.000000
      f-3     :     0.000001
      g0      :     0.000000  g :     0.000000
      g+1     :    -0.000000
      g-1     :    -0.000000
      g+2     :     0.000000
      g-2     :    -0.000000
      g+3     :    -0.000000
      g-3     :     0.000000
      g+4     :     0.000000
      g-4     :     0.000000
  2 Ags       :     0.021236  s :     0.021236
      pz      :     0.002509  p :     0.007962
      px      :     0.004055
      py      :     0.001398
      dz2     :     0.004418  d :     0.003961
      dxz     :    -0.001157
      dyz     :    -0.000497
      dx2y2   :    -0.000033
      dxy     :     0.001230
      f0      :     0.000005  f :     0.000001
      f+1     :    -0.000006
      f-1     :    -0.000002
      f+2     :     0.000001
      f-2     :     0.000002
      f+3     :    -0.000000
      f-3     :     0.000001
      g0      :     0.000000  g :     0.000000
      g+1     :    -0.000000
      g-1     :    -0.000000
      g+2     :    -0.000000
      g-2     :     0.000000
      g+3     :    -0.000000
      g-3     :     0.000000
      g+4     :     0.000000
      g-4     :     0.000000
  3 Ags       :     0.021238  s :     0.021238
      pz      :     0.002509  p :     0.007962
      px      :     0.004056
      py      :     0.001398
      dz2     :     0.004418  d :     0.003961
      dxz     :    -0.001157
      dyz     :    -0.000497
      dx2y2   :    -0.000033
      dxy     :     0.001230
      f0      :     0.000005  f :     0.000001
      f+1     :    -0.000006
      f-1     :    -0.000002
      f+2     :     0.000001
      f-2     :     0.000002
      f+3     :    -0.000000
      f-3     :     0.000001
      g0      :     0.000000  g :     0.000000
      g+1     :    -0.000000
      g-1     :    -0.000000
      g+2     :    -0.000000
      g-2     :     0.000000
      g+3     :    -0.000000
      g-3     :     0.000000
      g+4     :     0.000000
      g-4     :     0.000000
  4 H s       :     0.607416  s :     0.607416
      pz      :    -0.001136  p :     0.001930
      px      :     0.001533
      py      :     0.001533
      dz2     :    -0.000362  d :    -0.000210
      dxz     :     0.000068
      dyz     :     0.000068
      dx2y2   :     0.000007
      dxy     :     0.000007


                     *******************************
                     * LOEWDIN POPULATION ANALYSIS *
                     *******************************

-------------------------------------------
LOEWDIN ATOMIC CHARGES AND SPIN POPULATIONS
-------------------------------------------
   0 Ag:    0.433807    0.357161
   1 Ag:    0.500967    0.028482
   2 Ag:    0.500943    0.028484
   3 Ag:    0.500943    0.028484
   4 H :    0.063340    0.557389

----------------------------------------------------
LOEWDIN REDUCED ORBITAL CHARGES AND SPIN POPULATIONS
----------------------------------------------------
CHARGE
  0 Ags       :     2.423934  s :     2.423934
      pz      :     2.338780  p :     6.386119
      px      :     2.023670
      py      :     2.023668
      dz2     :     1.855825  d :     9.752013
      dxz     :     1.954452
      dyz     :     1.954471
      dx2y2   :     1.993632
      dxy     :     1.993632
      f0      :     0.002510  f :     0.004071
      f+1     :     0.000468
      f-1     :     0.000468
      f+2     :     0.000265
      f-2     :     0.000265
      f+3     :     0.000044
      f-3     :     0.000052
      g0      :     0.000039  g :     0.000056
      g+1     :     0.000004
      g-1     :     0.000004
      g+2     :     0.000003
      g-2     :     0.000003
      g+3     :     0.000001
      g-3     :     0.000001
      g+4     :     0.000000
      g-4     :     0.000000
  1 Ags       :     2.375221  s :     2.375221
      pz      :     2.045998  p :     6.215454
      px      :     2.025824
      py      :     2.143632
      dz2     :     1.978797  d :     9.906345
      dxz     :     1.993720
      dyz     :     1.979302
      dx2y2   :     1.991420
      dxy     :     1.963105
      f0      :     0.000192  f :     0.001995
      f+1     :     0.000134
      f-1     :     0.000495
      f+2     :     0.000167
      f-2     :     0.000199
      f+3     :     0.000544
      f-3     :     0.000264
      g0      :     0.000002  g :     0.000018
      g+1     :     0.000001
      g-1     :     0.000003
      g+2     :     0.000002
      g-2     :     0.000002
      g+3     :     0.000002
      g-3     :     0.000001
      g+4     :     0.000002
      g-4     :     0.000004
  2 Ags       :     2.375233  s :     2.375233
      pz      :     2.045999  p :     6.215452
      px      :     2.114176
      py      :     2.055277
      dz2     :     1.978798  d :     9.906358
      dxz     :     1.982907
      dyz     :     1.990115
      dx2y2   :     1.970201
      dxy     :     1.984337
      f0      :     0.000192  f :     0.001995
      f+1     :     0.000405
      f-1     :     0.000224
      f+2     :     0.000191
      f-2     :     0.000175
      f+3     :     0.000544
      f-3     :     0.000264
      g0      :     0.000002  g :     0.000018
      g+1     :     0.000002
      g-1     :     0.000001
      g+2     :     0.000002
      g-2     :     0.000002
      g+3     :     0.000002
      g-3     :     0.000001
      g+4     :     0.000004
      g-4     :     0.000003
  3 Ags       :     2.375233  s :     2.375233
      pz      :     2.045999  p :     6.215452
      px      :     2.114176
      py      :     2.055277
      dz2     :     1.978798  d :     9.906358
      dxz     :     1.982907
      dyz     :     1.990115
      dx2y2   :     1.970201
      dxy     :     1.984337
      f0      :     0.000192  f :     0.001995
      f+1     :     0.000405
      f-1     :     0.000224
      f+2     :     0.000191
      f-2     :     0.000175
      f+3     :     0.000544
      f-3     :     0.000264
      g0      :     0.000002  g :     0.000018
      g+1     :     0.000002
      g-1     :     0.000001
      g+2     :     0.000002
      g-2     :     0.000002
      g+3     :     0.000002
      g-3     :     0.000001
      g+4     :     0.000004
      g-4     :     0.000003
  4 H s       :     0.799865  s :     0.799865
      pz      :     0.089918  p :     0.126782
      px      :     0.018433
      py      :     0.018430
      dz2     :     0.005187  d :     0.010013
      dxz     :     0.002305
      dyz     :     0.002305
      dx2y2   :     0.000108
      dxy     :     0.000108

SPIN
  0 Ags       :     0.096878  s :     0.096878
      pz      :     0.164610  p :     0.164859
      px      :     0.000124
      py      :     0.000124
      dz2     :     0.093759  d :     0.093522
      dxz     :    -0.000294
      dyz     :    -0.000294
      dx2y2   :     0.000176
      dxy     :     0.000176
      f0      :     0.001886  f :     0.001870
      f+1     :    -0.000005
      f-1     :    -0.000005
      f+2     :    -0.000004
      f-2     :    -0.000004
      f+3     :     0.000000
      f-3     :     0.000002
      g0      :     0.000032  g :     0.000031
      g+1     :     0.000000
      g-1     :     0.000000
      g+2     :    -0.000000
      g-2     :    -0.000000
      g+3     :    -0.000000
      g-3     :     0.000000
      g+4     :    -0.000000
      g-4     :     0.000000
  1 Ags       :     0.012224  s :     0.012224
      pz      :     0.006328  p :     0.010649
      px      :     0.000061
      py      :     0.004261
      dz2     :     0.005845  d :     0.005603
      dxz     :    -0.000124
      dyz     :    -0.001628
      dx2y2   :     0.002090
      dxy     :    -0.000581
      f0      :     0.000015  f :     0.000006
      f+1     :     0.000000
      f-1     :    -0.000012
      f+2     :     0.000001
      f-2     :     0.000000
      f+3     :    -0.000001
      f-3     :     0.000001
      g0      :     0.000000  g :     0.000000
      g+1     :     0.000000
      g-1     :     0.000000
      g+2     :    -0.000000
      g-2     :     0.000000
      g+3     :    -0.000000
      g-3     :     0.000000
      g+4     :     0.000000
      g-4     :     0.000000
  2 Ags       :     0.012223  s :     0.012223
      pz      :     0.006328  p :     0.010649
      px      :     0.003210
      py      :     0.001111
      dz2     :     0.005845  d :     0.005605
      dxz     :    -0.001252
      dyz     :    -0.000500
      dx2y2   :     0.000088
      dxy     :     0.001424
      f0      :     0.000015  f :     0.000006
      f+1     :    -0.000009
      f-1     :    -0.000003
      f+2     :     0.000000
      f-2     :     0.000001
      f+3     :    -0.000001
      f-3     :     0.000001
      g0      :     0.000000  g :     0.000000
      g+1     :     0.000000
      g-1     :     0.000000
      g+2     :    -0.000000
      g-2     :    -0.000000
      g+3     :    -0.000000
      g-3     :     0.000000
      g+4     :     0.000000
      g-4     :     0.000000
  3 Ags       :     0.012223  s :     0.012223
      pz      :     0.006328  p :     0.010649
      px      :     0.003210
      py      :     0.001111
      dz2     :     0.005845  d :     0.005605
      dxz     :    -0.001252
      dyz     :    -0.000500
      dx2y2   :     0.000088
      dxy     :     0.001424
      f0      :     0.000015  f :     0.000006
      f+1     :    -0.000009
      f-1     :    -0.000003
      f+2     :     0.000000
      f-2     :     0.000001
      f+3     :    -0.000001
      f-3     :     0.000001
      g0      :     0.000000  g :     0.000000
      g+1     :     0.000000
      g-1     :     0.000000
      g+2     :    -0.000000
      g-2     :    -0.000000
      g+3     :    -0.000000
      g-3     :     0.000000
      g+4     :     0.000000
      g-4     :     0.000000
  4 H s       :     0.550713  s :     0.550713
      pz      :     0.003116  p :     0.006979
      px      :     0.001932
      py      :     0.001931
      dz2     :    -0.000484  d :    -0.000303
      dxz     :     0.000083
      dyz     :     0.000083
      dx2y2   :     0.000008
      dxy     :     0.000008


                      *****************************
                      * MAYER POPULATION ANALYSIS *
                      *****************************

  NA   - Mulliken gross atomic population
  ZA   - Total nuclear charge
  QA   - Mulliken gross atomic charge
  VA   - Mayer's total valence
  BVA  - Mayer's bonded valence
  FA   - Mayer's free valence

  ATOM       NA         ZA         QA         VA         BVA        FA
  0 Ag    18.6456    19.0000     0.3544     1.7551     1.5972     0.1579
  1 Ag    18.5222    19.0000     0.4778     1.1916     1.1902     0.0015
  2 Ag    18.5222    19.0000     0.4778     1.1916     1.1901     0.0015
  3 Ag    18.5222    19.0000     0.4778     1.1916     1.1901     0.0015
  4 H      0.7879     1.0000     0.2121     0.9549     0.5899     0.3649

  Mayer bond orders larger than 0.100000
B(  0-Ag,  1-Ag) :   0.3485 B(  0-Ag,  2-Ag) :   0.3485 B(  0-Ag,  3-Ag) :   0.3485 
B(  0-Ag,  4-H ) :   0.5518 B(  1-Ag,  2-Ag) :   0.4145 B(  1-Ag,  3-Ag) :   0.4145 
B(  2-Ag,  3-Ag) :   0.4144 

-------
TIMINGS
-------

Total SCF time: 0 days 0 hours 0 min 5 sec 

Total time                  ....       5.511 sec
Sum of individual times     ....       5.314 sec  ( 96.4%)

Fock matrix formation       ....       3.262 sec  ( 59.2%)
  Split-RI-J                ....       1.497 sec  ( 45.9% of F)
  XC integration            ....       1.603 sec  ( 49.1% of F)
    Basis function eval.    ....       0.095 sec  (  5.9% of XC)
    Density eval.           ....       0.277 sec  ( 17.3% of XC)
    XC-Functional eval.     ....       0.056 sec  (  3.5% of XC)
    XC-Potential eval.      ....       0.534 sec  ( 33.3% of XC)
Diagonalization             ....       0.267 sec  (  4.8%)
Density matrix formation    ....       0.028 sec  (  0.5%)
Population analysis         ....       0.018 sec  (  0.3%)
Initial guess               ....       1.259 sec  ( 22.8%)
Orbital Transformation      ....       0.000 sec  (  0.0%)
Orbital Orthonormalization  ....       0.000 sec  (  0.0%)
DIIS solution               ....       0.092 sec  (  1.7%)
Grid generation             ....       0.389 sec  (  7.1%)


-------------------------------------------------------------------------------
                          DFT DISPERSION CORRECTION                            
                                                                               
                              DFTD3 V3.1  Rev 1                                
                          USING Becke-Johnson damping                          
-------------------------------------------------------------------------------
The TPSS functional is recognized
Active option DFTDOPT                   ...         4   

molecular C6(AA) [au] = 4530.252935 


            DFT-D V3
 parameters
 s6 scaling factor         :     1.0000 
 a1 scaling factor         :     0.4535 
 s8 scaling factor         :     1.9435 
 a2 scaling factor         :     4.4752 
 ad hoc parameters k1-k3   :    16.0000     1.3333    -4.0000 

 Edisp/kcal,au: -7.697207907162  -0.012266280278 
 E6   /kcal   :  -2.406175207 
 E8   /kcal   :  -5.291032700 
 % E8         :  68.739636036 

-------------------------   ----------------
Dispersion correction           -0.012266280
-------------------------   ----------------


-------------------------   --------------------
FINAL SINGLE POINT ENERGY      -587.728594579337
-------------------------   --------------------


                            ***************************************
                            *     ORCA property calculations      *
                            ***************************************

                                    ---------------------
                                    Active property flags
                                    ---------------------
   (+) Dipole Moment


------------------------------------------------------------------------------
                       ORCA ELECTRIC PROPERTIES CALCULATION
------------------------------------------------------------------------------

Dipole Moment Calculation                       ... on
Quadrupole Moment Calculation                   ... off
Polarizability Calculation                      ... off
GBWName                                         ... Ag04C2_H_A.gbw
Electron density file                           ... Ag04C2_H_A.scfp
The origin for moment calculation is the CENTER OF MASS  = ( 0.000000, -0.000000 -0.019530)

-------------
DIPOLE MOMENT
-------------
                                X             Y             Z
Electronic contribution:      0.00000       0.00004      -5.35152
Nuclear contribution   :      0.00000       0.00000       5.41329
                        -----------------------------------------
Total Dipole Moment    :      0.00000       0.00004       0.06176
                        -----------------------------------------
Magnitude (a.u.)       :      0.06176
Magnitude (Debye)      :      0.15699



--------------------
Rotational spectrum 
--------------------
 
Rotational constants in cm-1:     0.019934     0.019231     0.019231 
Rotational constants in MHz :   597.606998   576.544336   576.544235 

 Dipole components along the rotational axes: 
x,y,z [a.u.] :    -0.061764    -0.000038     0.000000 
x,y,z [Debye]:    -0.156991    -0.000096     0.000000 

 

Timings for individual modules:

Sum of individual times         ...        7.240 sec (=   0.121 min)
GTO integral calculation        ...        1.391 sec (=   0.023 min)  19.2 %
SCF iterations                  ...        5.849 sec (=   0.097 min)  80.8 %
                             ****ORCA TERMINATED NORMALLY****
TOTAL RUN TIME: 0 days 0 hours 0 minutes 7 seconds 758 msec
