
                                 *****************
                                 * O   R   C   A *
                                 *****************

           --- An Ab Initio, DFT and Semiempirical electronic structure package ---

                  #######################################################
                  #                        -***-                        #
                  #          Department of theory and spectroscopy      #
                  #               Directorship: Frank Neese             #
                  #        Max Planck Institute fuer Kohlenforschung    #
                  #                Kaiser Wilhelm Platz 1               #
                  #                 D-45470 Muelheim/Ruhr               #
                  #                      Germany                        #
                  #                                                     #
                  #                  All rights reserved                #
                  #                        -***-                        #
                  #######################################################


                         Program Version 4.2.0 -  RELEASE  -


 With contributions from (in alphabetic order):
   Daniel Aravena         : Magnetic Suceptibility
   Michael Atanasov       : Ab Initio Ligand Field Theory (pilot matlab implementation)
   Alexander A. Auer      : GIAO ZORA, VPT2
   Ute Becker             : Parallelization
   Giovanni Bistoni       : ED, misc. LED, open-shell LED, HFLED
   Martin Brehm           : Molecular dynamics
   Dmytro Bykov           : SCF Hessian
   Vijay G. Chilkuri      : MRCI spin determinant printing, contributions to CSF-ICE
   Dipayan Datta          : RHF DLPNO-CCSD density
   Achintya Kumar Dutta   : EOM-CC, STEOM-CC
   Dmitry Ganyushin       : Spin-Orbit,Spin-Spin,Magnetic field MRCI
   Miquel Garcia          : C-PCM Hessian, Gaussian charge scheme
   Yang Guo               : DLPNO-NEVPT2, CIM, IAO-localization
   Andreas Hansen         : Spin unrestricted coupled pair/coupled cluster methods
   Benjamin Helmich-Paris : CASSCF linear response (MC-RPA)
   Lee Huntington         : MR-EOM, pCC
   Robert Izsak           : Overlap fitted RIJCOSX, COSX-SCS-MP3, EOM
   Christian Kollmar      : KDIIS, OOCD, Brueckner-CCSD(T), CCSD density
   Simone Kossmann        : Meta GGA functionals, TD-DFT gradient, OOMP2, MP2 Hessian
   Martin Krupicka        : AUTO-CI
   Lucas Lang             : DCDCAS
   Dagmar Lenk            : GEPOL surface, SMD
   Dimitrios Liakos       : Extrapolation schemes; Compound Job, initial MDCI parallelization
   Dimitrios Manganas     : Further ROCIS development; embedding schemes
   Dimitrios Pantazis     : SARC Basis sets
   Taras Petrenko         : DFT Hessian,TD-DFT gradient, ASA, ECA, R-Raman, ABS, FL, XAS/XES, NRVS
   Peter Pinski           : DLPNO-MP2, DLPNO-MP2 Gradient
   Christoph Reimann      : Effective Core Potentials
   Marius Retegan         : Local ZFS, SOC
   Christoph Riplinger    : Optimizer, TS searches, QM/MM, DLPNO-CCSD(T), (RO)-DLPNO pert. Triples
   Tobias Risthaus        : Range-separated hybrids, TD-DFT gradient, RPA, STAB
   Michael Roemelt        : Original ROCIS implementation
   Masaaki Saitow         : Open-shell DLPNO-CCSD energy and density
   Barbara Sandhoefer     : DKH picture change effects
   Avijit Sen             : IP-ROCIS
   Kantharuban Sivalingam : CASSCF convergence, NEVPT2, FIC-MRCI
   Bernardo de Souza      : ESD, SOC TD-DFT
   Georgi Stoychev        : AutoAux, RI-MP2 NMR
   Willem Van den Heuvel  : Paramagnetic NMR
   Boris Wezisla          : Elementary symmetry handling
   Frank Wennmohs         : Technical directorship


 We gratefully acknowledge several colleagues who have allowed us to
 interface, adapt or use parts of their codes:
   Stefan Grimme, W. Hujo, H. Kruse,             : VdW corrections, initial TS optimization,
                  C. Bannwarth                     DFT functionals, gCP, sTDA/sTD-DF
   Ed Valeev, F. Pavosevic, A. Kumar             : LibInt (2-el integral package), F12 methods
   Garnet Chan, S. Sharma, J. Yang, R. Olivares  : DMRG
   Ulf Ekstrom                                   : XCFun DFT Library
   Mihaly Kallay                                 : mrcc  (arbitrary order and MRCC methods)
   Andreas Klamt, Michael Diedenhofen            : otool_cosmo (COSMO solvation model)
   Jiri Pittner, Ondrej Demel                    : Mk-CCSD
   Frank Weinhold                                : gennbo (NPA and NBO analysis)
   Christopher J. Cramer and Donald G. Truhlar   : smd solvation model
   Lars Goerigk                                  : TD-DFT with DH, B97 family of functionals
   V. Asgeirsson, H. Jonsson                     : NEB implementation
   FAccTs GmbH                                   : IRC, NEB, NEB-TS, Multilevel, MM, QM/MM, CI optimization
   S Lehtola, MJT Oliveira, MAL Marques          : LibXC Library


 Your calculation uses the libint2 library for the computation of 2-el integrals
 For citations please refer to: http://libint.valeyev.net

 Your ORCA version has been built with support for libXC version: 4.2.3
 For citations please refer to: https://tddft.org/programs/libxc/

 This ORCA versions uses:
   CBLAS   interface :  Fast vector & matrix operations
   LAPACKE interface :  Fast linear algebra routines
   SCALAPACK package :  Parallel linear algebra routines


Your calculation utilizes the atom-pairwise dispersion correction
with the Becke-Johnson damping scheme (D3BJ)
Cite in your paper:
S.Grimme, S.Ehrlich, L.Goerigk, J Comput Chem, (2011), 32, 1456–1465 
S.Grimme, J.Antony, S.Ehrlich and H.Krieg, J.Chem.Phys., 132, (2010), 154104 
   

----- Orbital basis set information -----
Your calculation utilizes the basis: def2-TZVPPD
   F. Weigend and R. Ahlrichs, Phys. Chem. Chem. Phys. 7, 3297 (2005).
   D. Rappoport and F. Furche, J. Chem. Phys. 133 134105 (2010).

----- AuxJ basis set information -----
Your calculation utilizes the auxiliary basis: def2/J
   F. Weigend, Phys. Chem. Chem. Phys. 8, 1057 (2006).

cite the ECPs for Ag [Def2-ECP] as follows:
Ce-Yb(ecp-28): M. Dolg, H. Stoll, H.Preuss, J. Chem. Phys., 1989, 90, 1730-1734.
Y-Cd(ecp-28), Hf-Hg(ecp-46): D. Andrae,U. Haeussermann, M. Dolg, H. Stoll, H. Preuss, Theor. Chim. Acta, 1990, 77, 123-141.
In-Sb(ecp-28), Tl-Bi(ecp-46): B. Metz, H. Stoll, M. Dolg, J. Chem. Phys., 2000, 113, 2563-2569.
Te-Xe(ecp-28), Po-Rn(ecp-46): K. A. Peterson, D. Figgen, E. Goll, H. Stoll, M. Dolg, J. Chem. Phys., 2003, 119, 11113-11123.
Rb(ecp-28), Cs(ecp-46): T. Leininger, A. Nicklass, W. Kuechle, H. Stoll, M. Dolg, A. Bergner, Chem. Phys. Lett., 1996, 255, 274-280.
Sr(ecp-28), Ba(ecp-46): M. Kaupp, P. V. Schleyer, H. Stoll and H. Preuss, J. Chem. Phys., 1991, 94, 1360-1366.
La(ecp-46): M. Dolg, H. Stoll, A. Savin, H. Preuss, Theor. Chim. Acta, 1989, 75, 173-194.
Lu(ecp-28): X. Cao, M. Dolg, J. Chem. Phys., 2001, 115, 7348-7355.

ECP parameters for Ag [Def2-ECP] have been obtained from:
TURBOMOLE (7.0.2)

================================================================================
                                        WARNINGS
                       Please study these warnings very carefully!
================================================================================


INFO   : the flag for use of LIBINT has been found!

================================================================================
                                       INPUT FILE
================================================================================
NAME = Ag04C2_NH3_A.in
|  1> #
|  2> # Ag04C2_NH3_A TPSS-D3BJ/Def2-TZVPPD
|  3> #
|  4> ! tpss d3bj def2-tzvppd def2/j grid4 nofinalgrid
|  5> 
|  6> *xyz 2 1
|  7> Ag      -0.268639    1.507918    0.000000 
|  8> Ag       1.705052   -0.492854   -0.000000 
|  9> Ag      -0.647170   -0.911099    1.379441 
| 10> Ag      -0.647170   -0.911099   -1.379441 
| 11> N       -0.647170    3.675657    0.000000 
| 12> H       -0.250844    4.149729    0.817426 
| 13> H       -0.250844    4.149729   -0.817426 
| 14> H       -1.645581    3.906275    0.000000 
| 15> *
| 16> 
| 17> %maxcore 5000
| 18> 
| 19> %pal
| 20> nprocs = 24
| 21> end
| 22> 
| 23> 
| 24>                          ****END OF INPUT****
================================================================================

                       ****************************
                       * Single Point Calculation *
                       ****************************

---------------------------------
CARTESIAN COORDINATES (ANGSTROEM)
---------------------------------
  Ag    -0.268639    1.507918    0.000000
  Ag     1.705052   -0.492854   -0.000000
  Ag    -0.647170   -0.911099    1.379441
  Ag    -0.647170   -0.911099   -1.379441
  N     -0.647170    3.675657    0.000000
  H     -0.250844    4.149729    0.817426
  H     -0.250844    4.149729   -0.817426
  H     -1.645581    3.906275    0.000000

----------------------------
CARTESIAN COORDINATES (A.U.)
----------------------------
  NO LB      ZA    FRAG     MASS         X           Y           Z
   0 Ag   19.0000*   0   107.870   -0.507654    2.849552    0.000000
   1 Ag   19.0000*   0   107.870    3.222081   -0.931359   -0.000000
   2 Ag   19.0000*   0   107.870   -1.222974   -1.721728    2.606766
   3 Ag   19.0000*   0   107.870   -1.222974   -1.721728   -2.606766
   4 N     7.0000    0    14.007   -1.222974    6.945985    0.000000
   5 H     1.0000    0     1.008   -0.474026    7.841851    1.544711
   6 H     1.0000    0     1.008   -0.474026    7.841851   -1.544711
   7 H     1.0000    0     1.008   -3.109697    7.381790    0.000000
* core charge reduced due to ECP

--------------------------------
INTERNAL COORDINATES (ANGSTROEM)
--------------------------------
 Ag     0   0   0     0.000000000000     0.00000000     0.00000000
 Ag     1   0   0     2.810434976915     0.00000000     0.00000000
 Ag     2   1   0     2.758756004033    60.60322075     0.00000000
 Ag     2   1   3     2.758756004033    60.60322075    70.04806330
 N      1   2   3     2.200540408646   145.29552250   144.97596835
 H      5   1   2     1.024696942972   112.90585165   300.00135613
 H      5   1   2     1.024696942972   112.90585165    59.99864387
 H      5   1   2     1.024699559308   112.91148512   180.00000000

---------------------------
INTERNAL COORDINATES (A.U.)
---------------------------
 Ag     0   0   0     0.000000000000     0.00000000     0.00000000
 Ag     1   0   0     5.310952423562     0.00000000     0.00000000
 Ag     2   1   0     5.213293317934    60.60322075     0.00000000
 Ag     2   1   3     5.213293317934    60.60322075    70.04806330
 N      1   2   3     4.158418718967   145.29552250   144.97596835
 H      5   1   2     1.936396592483   112.90585165   300.00135613
 H      5   1   2     1.936396592483   112.90585165    59.99864387
 H      5   1   2     1.936401536641   112.91148512   180.00000000

---------------------
BASIS SET INFORMATION
---------------------
There are 3 groups of distinct atoms

 Group   1 Type Ag  : 7s7p6d2f1g contracted to 6s4p3d2f1g pattern {211111/4111/411/11/1}
 Group   2 Type N   : 12s6p3d1f contracted to 6s3p3d1f pattern {621111/411/111/1}
 Group   3 Type H   : 5s3p1d contracted to 3s3p1d pattern {311/111/1}

Atom   0Ag   basis set group =>   1
Atom   1Ag   basis set group =>   1
Atom   2Ag   basis set group =>   1
Atom   3Ag   basis set group =>   1
Atom   4N    basis set group =>   2
Atom   5H    basis set group =>   3
Atom   6H    basis set group =>   3
Atom   7H    basis set group =>   3
---------------------------------
AUXILIARY/J BASIS SET INFORMATION
---------------------------------
There are 3 groups of distinct atoms

 Group   1 Type Ag  : 11s5p5d3f3g contracted to 8s5p5d2f3g pattern {41111111/11111/11111/21/111}
 Group   2 Type N   : 12s5p4d2f1g contracted to 6s4p3d1f1g pattern {711111/2111/211/2/1}
 Group   3 Type H   : 5s2p1d contracted to 3s1p1d pattern {311/2/1}

Atom   0Ag   basis set group =>   1
Atom   1Ag   basis set group =>   1
Atom   2Ag   basis set group =>   1
Atom   3Ag   basis set group =>   1
Atom   4N    basis set group =>   2
Atom   5H    basis set group =>   3
Atom   6H    basis set group =>   3
Atom   7H    basis set group =>   3
-------------------------
ECP PARAMETER INFORMATION
-------------------------

 Group 1, Type Ag ECP Def2-ECP (replacing 28 core electrons, lmax=3)

Atom   0Ag   ECP group =>   1
Atom   1Ag   ECP group =>   1
Atom   2Ag   ECP group =>   1
Atom   3Ag   ECP group =>   1



           ************************************************************
           *        Program running with 24 parallel MPI-processes    *
           *              working on a common directory               *
           ************************************************************
------------------------------------------------------------------------------
                           ORCA GTO INTEGRAL CALCULATION
                           -- RI-GTO INTEGRALS CHOSEN --
------------------------------------------------------------------------------

                         BASIS SET STATISTICS AND STARTUP INFO

Gaussian basis set:
 # of primitive gaussian shells          ...  141
 # of primitive gaussian functions       ...  433
 # of contracted shells                  ...   98
 # of contracted basis functions         ...  312
 Highest angular momentum                ...    4
 Maximum contraction depth               ...    6
Auxiliary gaussian basis set:
 # of primitive gaussian shells          ...  156
 # of primitive gaussian functions       ...  514
 # of contracted shells                  ...  122
 # of contracted aux-basis functions     ...  438
 Highest angular momentum                ...    4
 Maximum contraction depth               ...    7
Ratio of auxiliary to basis functions    ...  1.40
Integral package used                  ... LIBINT
 One Electron integrals                  
   ECP integrals                         ... done
 Ordering auxiliary basis shells         ... done
 Integral threshhold             Thresh  ...  1.000e-10
 Primitive cut-off               TCut    ...  1.000e-11
 Pre-screening matrix                    ... done
 Shell pair data                         ... 
 Ordering of the shell pairs             ... done (   0.001 sec) 4223 of 4851 pairs
 Determination of significant pairs      ... done (   0.000 sec)
 Creation of shell pair data             ... done (   0.000 sec)
 Storage of shell pair data              ... done (   0.013 sec)
 Shell pair data done in (   0.014 sec)
 Computing two index integrals           ... done
 Cholesky decomposition of the V-matrix  ... done


Timings:
 Total evaluation time                   ...   1.330 sec (  0.022 min)
 One electron matrix time                ...   1.078 sec (  0.018 min) = 81.0%
 Schwartz matrix evaluation time         ...   0.199 sec (  0.003 min) = 15.0%
 Two index repulsion integral time       ...   0.003 sec (  0.000 min) =  0.2%
 Cholesky decomposition of V             ...   0.003 sec (  0.000 min) =  0.2%
 Three index repulsion integral time     ...   0.000 sec (  0.000 min) =  0.0%



           ************************************************************
           *        Program running with 24 parallel MPI-processes    *
           *              working on a common directory               *
           ************************************************************
-------------------------------------------------------------------------------
                                 ORCA SCF
-------------------------------------------------------------------------------

------------
SCF SETTINGS
------------
Hamiltonian:
 Density Functional     Method          .... DFT(GTOs)
 Exchange Functional    Exchange        .... TPSS
 Correlation Functional Correlation     .... TPSS
 LDA part of GGA corr.  LDAOpt          .... PW91-LDA
 Gradients option       PostSCFGGA      .... off
   Density functional embedding theory  .... OFF
   NL short-range parameter             ....  5.000000
 RI-approximation to the Coulomb term is turned on
   Number of auxiliary basis functions  .... 438


General Settings:
 Integral files         IntName         .... Ag04C2_NH3_A
 Hartree-Fock type      HFTyp           .... RHF
 Total Charge           Charge          ....    2
 Multiplicity           Mult            ....    1
 Number of Electrons    NEL             ....   84
 Basis Dimension        Dim             ....  312
 Nuclear Repulsion      ENuc            ....    527.7252334619 Eh

Convergence Acceleration:
 DIIS                   CNVDIIS         .... on
   Start iteration      DIISMaxIt       ....    12
   Startup error        DIISStart       ....  0.200000
   # of expansion vecs  DIISMaxEq       ....     5
   Bias factor          DIISBfac        ....   1.050
   Max. coefficient     DIISMaxC        ....  10.000
 Newton-Raphson         CNVNR           .... off
 SOSCF                  CNVSOSCF        .... off
 Level Shifting         CNVShift        .... on
   Level shift para.    LevelShift      ....    0.2500
   Turn off err/grad.   ShiftErr        ....    0.0010
 Zerner damping         CNVZerner       .... off
 Static damping         CNVDamp         .... on
   Fraction old density DampFac         ....    0.7000
   Max. Damping (<1)    DampMax         ....    0.9800
   Min. Damping (>=0)   DampMin         ....    0.0000
   Turn off err/grad.   DampErr         ....    0.1000
 Fernandez-Rico         CNVRico         .... off

SCF Procedure:
 Maximum # iterations   MaxIter         ....   125
 SCF integral mode      SCFMode         .... Direct
   Integral package                     .... LIBINT
 Reset frequency        DirectResetFreq ....    20
 Integral Threshold     Thresh          ....  1.000e-10 Eh
 Primitive CutOff       TCut            ....  1.000e-11 Eh

Convergence Tolerance:
 Convergence Check Mode ConvCheckMode   .... Total+1el-Energy
 Convergence forced     ConvForced      .... 0
 Energy Change          TolE            ....  1.000e-06 Eh
 1-El. energy change                    ....  1.000e-03 Eh
 DIIS Error             TolErr          ....  1.000e-06


Diagonalization of the overlap matrix:
Smallest eigenvalue                        ... 2.012e-04
Time for diagonalization                   ...    0.013 sec
Threshold for overlap eigenvalues          ... 1.000e-08
Number of eigenvalues below threshold      ... 0
Time for construction of square roots      ...    0.012 sec
Total time needed                          ...    0.026 sec

-------------------
DFT GRID GENERATION
-------------------

General Integration Accuracy     IntAcc      ...  4.670
Radial Grid Type                 RadialGrid  ... Gauss-Chebyshev
Angular Grid (max. acc.)         AngularGrid ... Lebedev-302
Angular grid pruning method      GridPruning ... 3 (G Style)
Weight generation scheme         WeightScheme... Becke
Basis function cutoff            BFCut       ...    1.0000e-10
Integration weight cutoff        WCut        ...    1.0000e-14
Grids for H and He will be reduced by one unit

# of grid points (after initial pruning)     ...  59026 (   0.0 sec)
# of grid points (after weights+screening)   ...  57099 (   0.0 sec)
nearest neighbour list constructed           ...    0.0 sec
Grid point re-assignment to atoms done       ...    0.0 sec
Grid point division into batches done        ...    0.5 sec
Reduced shell lists constructed in    0.5 sec

Total number of grid points                  ...    57099
Total number of batches                      ...      896
Average number of points per batch           ...       63
Average number of grid points per atom       ...     7137
Average number of shells per batch           ...    66.36 (67.71%)
Average number of basis functions per batch  ...   211.18 (67.69%)
Average number of large shells per batch     ...    53.03 (79.91%)
Average number of large basis fcns per batch ...   162.31 (76.86%)
Maximum spatial batch extension              ...   4.09,  2.73,  4.73 au
Average spatial batch extension              ...   0.10,  0.09,  0.09 au

Time for grid setup =    0.548 sec

------------------------------
INITIAL GUESS: MODEL POTENTIAL
------------------------------
Loading Hartree-Fock densities                     ... done
  calling /sw/apps/orca/orca_4_2_0_linux_x86-64_openmpi314/orca Ag04C2_NH3_A_atom47.inp > Ag04C2_NH3_A_atom47.out in order to generate an atomic fitting density for atom 0 (Ag with ECP) on-the-fly... 
    atom 0 (Ag), assumed electronic state with S=2: 1s2 2s2 2p6 3s2 3p6 4s2 3d10 4p6 5s2 4d9           ... done
Calculating cut-offs                               ... done
Setting up the integral package                    ... done
Initializing the effective Hamiltonian             ... done
Starting the Coulomb interaction                   ... done (   0.0 sec)
Reading the grid                                   ... done
Mapping shells                                     ... done
Starting the XC term evaluation                    ... done (   0.0 sec)
  promolecular density results
     # of electrons  =    198.000320224
     EX              =   -581.215961798
     EC              =    -10.296850604
     EX+EC           =   -591.512812402
Transforming the Hamiltonian                       ... done (   0.0 sec)
Diagonalizing the Hamiltonian                      ... done (   0.0 sec)
Back transforming the eigenvectors                 ... done (   0.0 sec)
Now organizing SCF variables                       ... done
                      ------------------
                      INITIAL GUESS DONE (   2.0 sec)
                      ------------------
--------------
SCF ITERATIONS
--------------
ITER       Energy         Delta-E        Max-DP      RMS-DP      [F,P]     Damp
               ***  Starting incremental Fock matrix formation  ***
  0   -643.4935918019   0.000000000000 0.08171657  0.00154259  0.5144326 0.7000
  1   -643.6738210172  -0.180229215279 0.03384266  0.00083419  0.3355402 0.7000
  2   -643.7291689100  -0.055347892828 0.02133449  0.00032525  0.2221695 0.7000
                               ***Turning on DIIS***
  3   -643.7659410906  -0.036772180539 0.01539593  0.00020374  0.1523982 0.7000
  4   -643.7938119606  -0.027870870000 0.00547152  0.00014127  0.1067590 0.7000
  5   -643.8134101209  -0.019598160279 0.01255789  0.00033501  0.0749748 0.0000
  6   -643.8589413883  -0.045531267438 0.01077103  0.00007384  0.0009936 0.0000
  7   -643.8589485380  -0.000007149743 0.00165405  0.00001557  0.0020941 0.0000
  8   -643.8589650257  -0.000016487674 0.00053960  0.00000958  0.0003954 0.0000
  9   -643.8589655025  -0.000000476752 0.00034559  0.00000526  0.0003813 0.0000
 10   -643.8589657125  -0.000000210020 0.00042199  0.00000309  0.0002608 0.0000
                 **** Energy Check signals convergence ****

               *****************************************************
               *                     SUCCESS                       *
               *           SCF CONVERGED AFTER  11 CYCLES          *
               *****************************************************


----------------
TOTAL SCF ENERGY
----------------

Total Energy       :         -643.85896589 Eh          -17520.29318 eV

Components:
Nuclear Repulsion  :          527.72523346 Eh           14360.13366 eV
Electronic Energy  :        -1171.58419935 Eh          -31880.42683 eV
One Electron Energy:        -2145.43245959 Eh          -58380.18522 eV
Two Electron Energy:          973.84826024 Eh           26499.75838 eV

Virial components:
Potential Energy   :         -924.58878931 Eh          -25159.34003 eV
Kinetic Energy     :          280.72982343 Eh            7639.04686 eV
Virial Ratio       :            3.29351822


DFT components:
N(Alpha)           :       42.000014405089 electrons
N(Beta)            :       42.000014405089 electrons
N(Total)           :       84.000028810177 electrons
E(X)               :      -60.348655791606 Eh       
E(C)               :       -3.598727056093 Eh       
E(XC)              :      -63.947382847699 Eh       
DFET-embed. en.    :        0.000000000000 Eh       

---------------
SCF CONVERGENCE
---------------

  Last Energy change         ...   -1.7337e-07  Tolerance :   1.0000e-06
  Last MAX-Density change    ...    6.5130e-05  Tolerance :   1.0000e-05
  Last RMS-Density change    ...    6.0865e-07  Tolerance :   1.0000e-06
  Last DIIS Error            ...    1.4608e-05  Tolerance :   1.0000e-06

             **** THE GBW FILE WAS UPDATED (Ag04C2_NH3_A.gbw) ****
             **** DENSITY FILE WAS UPDATED (Ag04C2_NH3_A.scfp) ****
             **** ENERGY FILE WAS UPDATED (Ag04C2_NH3_A.en.tmp) ****
             **** THE GBW FILE WAS UPDATED (Ag04C2_NH3_A.gbw) ****
             **** DENSITY FILE WAS UPDATED (Ag04C2_NH3_A.scfp) ****
----------------
ORBITAL ENERGIES
----------------

  NO   OCC          E(Eh)            E(eV) 
   0   2.0000     -14.429656      -392.6509 
   1   2.0000      -3.940424      -107.2244 
   2   2.0000      -3.940145      -107.2168 
   3   2.0000      -3.940142      -107.2167 
   4   2.0000      -3.929297      -106.9216 
   5   2.0000      -2.566174       -69.8291 
   6   2.0000      -2.563844       -69.7657 
   7   2.0000      -2.563840       -69.7656 
   8   2.0000      -2.562146       -69.7195 
   9   2.0000      -2.562141       -69.7194 
  10   2.0000      -2.561973       -69.7148 
  11   2.0000      -2.561336       -69.6975 
  12   2.0000      -2.561276       -69.6959 
  13   2.0000      -2.561275       -69.6958 
  14   2.0000      -2.552343       -69.4528 
  15   2.0000      -2.549951       -69.3877 
  16   2.0000      -2.549950       -69.3877 
  17   2.0000      -1.126283       -30.6477 
  18   2.0000      -0.744306       -20.2536 
  19   2.0000      -0.744302       -20.2535 
  20   2.0000      -0.685399       -18.6507 
  21   2.0000      -0.656390       -17.8613 
  22   2.0000      -0.647693       -17.6246 
  23   2.0000      -0.647681       -17.6243 
  24   2.0000      -0.638111       -17.3639 
  25   2.0000      -0.637587       -17.3496 
  26   2.0000      -0.637573       -17.3492 
  27   2.0000      -0.628813       -17.1109 
  28   2.0000      -0.623816       -16.9749 
  29   2.0000      -0.623814       -16.9749 
  30   2.0000      -0.607981       -16.5440 
  31   2.0000      -0.607412       -16.5285 
  32   2.0000      -0.607401       -16.5282 
  33   2.0000      -0.606115       -16.4932 
  34   2.0000      -0.606105       -16.4929 
  35   2.0000      -0.598851       -16.2956 
  36   2.0000      -0.598836       -16.2952 
  37   2.0000      -0.591047       -16.0832 
  38   2.0000      -0.585823       -15.9410 
  39   2.0000      -0.585821       -15.9410 
  40   2.0000      -0.576748       -15.6941 
  41   2.0000      -0.556997       -15.1567 
  42   0.0000      -0.434304       -11.8180 
  43   0.0000      -0.434294       -11.8178 
  44   0.0000      -0.405309       -11.0290 
  45   0.0000      -0.316853        -8.6220 
  46   0.0000      -0.308531        -8.3955 
  47   0.0000      -0.308529        -8.3955 
  48   0.0000      -0.293979        -7.9996 
  49   0.0000      -0.293970        -7.9993 
  50   0.0000      -0.276385        -7.5208 
  51   0.0000      -0.211333        -5.7507 
  52   0.0000      -0.191285        -5.2051 
  53   0.0000      -0.191268        -5.2047 
  54   0.0000      -0.177319        -4.8251 
  55   0.0000      -0.176528        -4.8036 
  56   0.0000      -0.176514        -4.8032 
  57   0.0000      -0.162544        -4.4230 
  58   0.0000      -0.162227        -4.4144 
  59   0.0000      -0.162199        -4.4137 
  60   0.0000      -0.122162        -3.3242 
  61   0.0000      -0.122058        -3.3214 
  62   0.0000      -0.122018        -3.3203 
  63   0.0000      -0.107521        -2.9258 
  64   0.0000      -0.095143        -2.5890 
  65   0.0000      -0.086739        -2.3603 
  66   0.0000      -0.086737        -2.3602 
  67   0.0000      -0.074603        -2.0300 
  68   0.0000      -0.074561        -2.0289 
  69   0.0000      -0.063470        -1.7271 
  70   0.0000      -0.063400        -1.7252 
  71   0.0000      -0.060860        -1.6561 
  72   0.0000      -0.021636        -0.5887 
  73   0.0000      -0.015674        -0.4265 
  74   0.0000      -0.015446        -0.4203 
  75   0.0000      -0.000095        -0.0026 
  76   0.0000       0.012155         0.3307 
  77   0.0000       0.012266         0.3338 
  78   0.0000       0.022902         0.6232 
  79   0.0000       0.022944         0.6243 
  80   0.0000       0.030246         0.8230 
  81   0.0000       0.049942         1.3590 
  82   0.0000       0.057326         1.5599 
  83   0.0000       0.057340         1.5603 
  84   0.0000       0.061681         1.6784 
  85   0.0000       0.078601         2.1388 
  86   0.0000       0.080918         2.2019 
  87   0.0000       0.081247         2.2108 
  88   0.0000       0.112769         3.0686 
  89   0.0000       0.144055         3.9199 
  90   0.0000       0.144088         3.9208 
  91   0.0000       0.181206         4.9309 
  92   0.0000       0.190244         5.1768 
  93   0.0000       0.190432         5.1819 
  94   0.0000       0.196406         5.3445 
  95   0.0000       0.196839         5.3563 
  96   0.0000       0.198620         5.4047 
  97   0.0000       0.222712         6.0603 
  98   0.0000       0.222926         6.0661 
  99   0.0000       0.245687         6.6855 
 100   0.0000       0.273316         7.4373 
 101   0.0000       0.273444         7.4408 
 102   0.0000       0.312638         8.5073 
 103   0.0000       0.318486         8.6664 
 104   0.0000       0.318634         8.6705 
 105   0.0000       0.343923         9.3586 
 106   0.0000       0.344015         9.3611 
 107   0.0000       0.390032        10.6133 
 108   0.0000       0.390408        10.6235 
 109   0.0000       0.410514        11.1707 
 110   0.0000       0.410678        11.1751 
 111   0.0000       0.418378        11.3847 
 112   0.0000       0.431215        11.7340 
 113   0.0000       0.431289        11.7360 
 114   0.0000       0.491007        13.3610 
 115   0.0000       0.573710        15.6115 
 116   0.0000       0.574157        15.6236 
 117   0.0000       0.596826        16.2405 
 118   0.0000       0.764353        20.7991 
 119   0.0000       0.814924        22.1752 
 120   0.0000       0.815004        22.1774 
 121   0.0000       0.857428        23.3318 
 122   0.0000       0.861000        23.4290 
 123   0.0000       0.861189        23.4342 
 124   0.0000       0.925674        25.1889 
 125   0.0000       0.925674        25.1889 
 126   0.0000       1.106838        30.1186 
 127   0.0000       1.135757        30.9055 
 128   0.0000       1.135768        30.9058 
 129   0.0000       1.159762        31.5587 
 130   0.0000       1.165662        31.7193 
 131   0.0000       1.172884        31.9158 
 132   0.0000       1.172884        31.9158 
 133   0.0000       1.180205        32.1150 
 134   0.0000       1.180326        32.1183 
 135   0.0000       1.191557        32.4239 
 136   0.0000       1.191997        32.4359 
 137   0.0000       1.196164        32.5493 
 138   0.0000       1.196168        32.5494 
 139   0.0000       1.204086        32.7648 
 140   0.0000       1.208756        32.8919 
 141   0.0000       1.208805        32.8933 
 142   0.0000       1.215973        33.0883 
 143   0.0000       1.216889        33.1132 
 144   0.0000       1.217102        33.1190 
 145   0.0000       1.225437        33.3458 
 146   0.0000       1.234429        33.5905 
 147   0.0000       1.234461        33.5914 
 148   0.0000       1.234710        33.5982 
 149   0.0000       1.239307        33.7233 
 150   0.0000       1.254180        34.1280 
 151   0.0000       1.254237        34.1295 
 152   0.0000       1.261826        34.3360 
 153   0.0000       1.261858        34.3369 
 154   0.0000       1.276623        34.7387 
 155   0.0000       1.292497        35.1706 
 156   0.0000       1.292501        35.1707 
 157   0.0000       1.303917        35.4814 
 158   0.0000       1.370593        37.2957 
 159   0.0000       1.370605        37.2961 
 160   0.0000       1.383294        37.6413 
 161   0.0000       1.383302        37.6415 
 162   0.0000       1.389774        37.8177 
 163   0.0000       1.431703        38.9586 
 164   0.0000       1.431806        38.9614 
 165   0.0000       1.490464        40.5576 
 166   0.0000       1.505090        40.9556 
 167   0.0000       1.505163        40.9576 
 168   0.0000       1.516632        41.2697 
 169   0.0000       1.548669        42.1414 
 170   0.0000       1.548852        42.1464 
 171   0.0000       1.600278        43.5458 
 172   0.0000       1.681446        45.7545 
 173   0.0000       1.691303        46.0227 
 174   0.0000       1.691414        46.0257 
 175   0.0000       1.708623        46.4940 
 176   0.0000       1.719357        46.7861 
 177   0.0000       1.719518        46.7905 
 178   0.0000       1.745499        47.4975 
 179   0.0000       1.749675        47.6111 
 180   0.0000       1.749734        47.6127 
 181   0.0000       1.793691        48.8088 
 182   0.0000       1.793735        48.8100 
 183   0.0000       1.800456        48.9929 
 184   0.0000       1.800521        48.9947 
 185   0.0000       1.802003        49.0350 
 186   0.0000       1.811739        49.2999 
 187   0.0000       1.825287        49.6686 
 188   0.0000       1.825446        49.6729 
 189   0.0000       1.868015        50.8313 
 190   0.0000       2.035785        55.3965 
 191   0.0000       2.036576        55.4181 
 192   0.0000       2.173662        59.1484 
 193   0.0000       2.277778        61.9815 
 194   0.0000       2.277783        61.9816 
 195   0.0000       2.283958        62.1497 
 196   0.0000       2.387020        64.9541 
 197   0.0000       2.411064        65.6084 
 198   0.0000       2.411192        65.6119 
 199   0.0000       2.471141        67.2432 
 200   0.0000       2.521899        68.6244 
 201   0.0000       2.615411        71.1689 
 202   0.0000       2.615587        71.1737 
 203   0.0000       2.873813        78.2004 
 204   0.0000       2.922890        79.5359 
 205   0.0000       2.991444        81.4013 
 206   0.0000       2.991450        81.4015 
 207   0.0000       3.062781        83.3425 
 208   0.0000       3.062867        83.3449 
 209   0.0000       3.189653        86.7949 
 210   0.0000       3.220790        87.6422 
 211   0.0000       3.220811        87.6427 
 212   0.0000       3.606971        98.1507 
 213   0.0000       3.606978        98.1509 
 214   0.0000       3.671254        99.8999 
 215   0.0000       3.718302       101.1801 
 216   0.0000       3.718379       101.1822 
 217   0.0000       3.792807       103.2075 
 218   0.0000       3.845889       104.6520 
 219   0.0000       3.845986       104.6546 
 220   0.0000       4.045354       110.0797 
 221   0.0000       4.163624       113.2980 
 222   0.0000       4.163769       113.3019 
 223   0.0000       4.220296       114.8401 
 224   0.0000       4.353911       118.4760 
 225   0.0000       4.360836       118.6644 
 226   0.0000       4.363305       118.7316 
 227   0.0000       4.363494       118.7367 
 228   0.0000       4.373528       119.0098 
 229   0.0000       4.373563       119.0107 
 230   0.0000       4.383609       119.2841 
 231   0.0000       4.389069       119.4326 
 232   0.0000       4.389110       119.4338 
 233   0.0000       4.389227       119.4369 
 234   0.0000       4.398818       119.6979 
 235   0.0000       4.401383       119.7677 
 236   0.0000       4.423405       120.3670 
 237   0.0000       4.423597       120.3722 
 238   0.0000       4.429584       120.5351 
 239   0.0000       4.439579       120.8071 
 240   0.0000       4.439740       120.8115 
 241   0.0000       4.441217       120.8517 
 242   0.0000       4.450770       121.1116 
 243   0.0000       4.451007       121.1181 
 244   0.0000       4.452038       121.1461 
 245   0.0000       4.452412       121.1563 
 246   0.0000       4.544213       123.6543 
 247   0.0000       4.544523       123.6628 
 248   0.0000       4.576687       124.5380 
 249   0.0000       4.589213       124.8788 
 250   0.0000       4.593858       125.0052 
 251   0.0000       4.593904       125.0065 
 252   0.0000       4.660424       126.8166 
 253   0.0000       4.660655       126.8229 
 254   0.0000       4.830289       131.4388 
 255   0.0000       4.945800       134.5820 
 256   0.0000       4.945818       134.5826 
 257   0.0000       5.029732       136.8660 
 258   0.0000       5.157621       140.3460 
 259   0.0000       5.158066       140.3581 
 260   0.0000       5.158474       140.3692 
 261   0.0000       5.158558       140.3715 
 262   0.0000       5.158790       140.3778 
 263   0.0000       5.158859       140.3797 
 264   0.0000       5.159020       140.3841 
 265   0.0000       5.159306       140.3919 
 266   0.0000       5.159389       140.3941 
 267   0.0000       5.159711       140.4029 
 268   0.0000       5.160110       140.4137 
 269   0.0000       5.160281       140.4184 
 270   0.0000       5.160877       140.4346 
 271   0.0000       5.161385       140.4484 
 272   0.0000       5.161540       140.4526 
 273   0.0000       5.161867       140.4615 
 274   0.0000       5.161886       140.4620 
 275   0.0000       5.162050       140.4665 
 276   0.0000       5.162331       140.4742 
 277   0.0000       5.162716       140.4847 
 278   0.0000       5.162765       140.4860 
 279   0.0000       5.164116       140.5227 
 280   0.0000       5.164363       140.5295 
 281   0.0000       5.164689       140.5383 
 282   0.0000       5.169082       140.6579 
 283   0.0000       5.169394       140.6664 
 284   0.0000       5.173017       140.7650 
 285   0.0000       5.177096       140.8759 
 286   0.0000       5.177610       140.8899 
 287   0.0000       5.177853       140.8965 
 288   0.0000       5.180267       140.9622 
 289   0.0000       5.180552       140.9700 
 290   0.0000       5.182470       141.0222 
 291   0.0000       5.208548       141.7318 
 292   0.0000       5.208633       141.7341 
 293   0.0000       5.210069       141.7732 
 294   0.0000       5.371922       146.1774 
 295   0.0000       5.585206       151.9812 
 296   0.0000       5.588016       152.0577 
 297   0.0000       5.588056       152.0587 
 298   0.0000       5.721050       155.6777 
 299   0.0000       5.721127       155.6798 
 300   0.0000       6.253127       170.1562 
 301   0.0000       6.429111       174.9450 
 302   0.0000       6.429192       174.9472 
 303   0.0000      32.358888       880.5301 
 304   0.0000      33.034945       898.9266 
 305   0.0000      33.382713       908.3898 
 306   0.0000      33.383036       908.3986 
 307   0.0000      33.498680       911.5454 
 308   0.0000     110.382236      3003.6533 
 309   0.0000     110.493197      3006.6728 
 310   0.0000     110.493298      3006.6755 
 311   0.0000     110.536568      3007.8529 

                    ********************************
                    * MULLIKEN POPULATION ANALYSIS *
                    ********************************

-----------------------
MULLIKEN ATOMIC CHARGES
-----------------------
   0 Ag:    0.423123
   1 Ag:    0.348816
   2 Ag:    0.347589
   3 Ag:    0.347604
   4 N :   -0.153621
   5 H :    0.228750
   6 H :    0.228750
   7 H :    0.228990
Sum of atomic charges:    2.0000000

--------------------------------
MULLIKEN REDUCED ORBITAL CHARGES
--------------------------------
  0 Ags       :     2.671874  s :     2.671874
      pz      :     2.019410  p :     6.039554
      px      :     2.018784
      py      :     2.001360
      dz2     :     1.984218  d :     9.862017
      dxz     :     1.993266
      dyz     :     1.954333
      dx2y2   :     1.966731
      dxy     :     1.963470
      f0      :     0.000240  f :     0.003399
      f+1     :     0.000097
      f-1     :     0.000761
      f+2     :     0.000408
      f-2     :     0.000190
      f+3     :     0.000653
      f-3     :     0.001049
      g0      :     0.000003  g :     0.000033
      g+1     :     0.000000
      g-1     :     0.000003
      g+2     :     0.000005
      g-2     :     0.000002
      g+3     :     0.000002
      g-3     :     0.000003
      g+4     :     0.000008
      g-4     :     0.000006
  1 Ags       :     2.629904  s :     2.629904
      pz      :     2.018593  p :     6.144966
      px      :     2.098019
      py      :     2.028354
      dz2     :     1.988836  d :     9.874703
      dxz     :     1.948615
      dyz     :     1.993076
      dx2y2   :     1.982072
      dxy     :     1.962105
      f0      :     0.000165  f :     0.001595
      f+1     :     0.000264
      f-1     :     0.000068
      f+2     :     0.000299
      f-2     :     0.000223
      f+3     :     0.000305
      f-3     :     0.000271
      g0      :     0.000001  g :     0.000016
      g+1     :     0.000002
      g-1     :     0.000000
      g+2     :     0.000002
      g-2     :     0.000001
      g+3     :     0.000003
      g-3     :     0.000002
      g+4     :     0.000003
      g-4     :     0.000002
  2 Ags       :     2.630995  s :     2.630995
      pz      :     2.071905  p :     6.145208
      px      :     2.031240
      py      :     2.042063
      dz2     :     1.959348  d :     9.874597
      dxz     :     1.978317
      dyz     :     1.977786
      dx2y2   :     1.968047
      dxy     :     1.991099
      f0      :     0.000402  f :     0.001595
      f+1     :     0.000242
      f-1     :     0.000228
      f+2     :     0.000267
      f-2     :     0.000142
      f+3     :     0.000157
      f-3     :     0.000158
      g0      :     0.000004  g :     0.000016
      g+1     :     0.000002
      g-1     :     0.000002
      g+2     :     0.000002
      g-2     :     0.000001
      g+3     :     0.000002
      g-3     :     0.000002
      g+4     :     0.000001
      g-4     :     0.000001
  3 Ags       :     2.630984  s :     2.630984
      pz      :     2.071902  p :     6.145204
      px      :     2.031239
      py      :     2.042063
      dz2     :     1.959348  d :     9.874597
      dxz     :     1.978317
      dyz     :     1.977785
      dx2y2   :     1.968047
      dxy     :     1.991099
      f0      :     0.000402  f :     0.001595
      f+1     :     0.000242
      f-1     :     0.000228
      f+2     :     0.000267
      f-2     :     0.000142
      f+3     :     0.000157
      f-3     :     0.000158
      g0      :     0.000004  g :     0.000016
      g+1     :     0.000002
      g-1     :     0.000002
      g+2     :     0.000002
      g-2     :     0.000001
      g+3     :     0.000002
      g-3     :     0.000002
      g+4     :     0.000001
      g-4     :     0.000001
  4 N s       :     3.183105  s :     3.183105
      pz      :     1.240212  p :     3.960071
      px      :     1.247198
      py      :     1.472661
      dz2     :     0.004370  d :     0.009594
      dxz     :     0.005240
      dyz     :     0.001158
      dx2y2   :     0.000682
      dxy     :    -0.001856
      f0      :     0.000035  f :     0.000852
      f+1     :     0.000177
      f-1     :     0.000206
      f+2     :     0.000022
      f-2     :     0.000101
      f+3     :     0.000208
      f-3     :     0.000102
  5 H s       :     0.691459  s :     0.691459
      pz      :     0.035078  p :     0.076056
      px      :     0.024297
      py      :     0.016680
      dz2     :     0.001215  d :     0.003736
      dxz     :     0.000854
      dyz     :     0.000837
      dx2y2   :     0.000505
      dxy     :     0.000325
  6 H s       :     0.691459  s :     0.691459
      pz      :     0.035078  p :     0.076056
      px      :     0.024297
      py      :     0.016680
      dz2     :     0.001215  d :     0.003736
      dxz     :     0.000854
      dyz     :     0.000837
      dx2y2   :     0.000505
      dxy     :     0.000325
  7 H s       :     0.691302  s :     0.691302
      pz      :     0.022181  p :     0.075970
      px      :     0.042247
      py      :     0.011542
      dz2     :     0.000195  d :     0.003738
      dxz     :     0.001291
      dyz     :     0.000009
      dx2y2   :     0.000923
      dxy     :     0.001320


                     *******************************
                     * LOEWDIN POPULATION ANALYSIS *
                     *******************************

----------------------
LOEWDIN ATOMIC CHARGES
----------------------
   0 Ag:    0.422704
   1 Ag:    0.467247
   2 Ag:    0.467258
   3 Ag:    0.467259
   4 N :    0.407608
   5 H :   -0.077367
   6 H :   -0.077367
   7 H :   -0.077343

-------------------------------
LOEWDIN REDUCED ORBITAL CHARGES
-------------------------------
  0 Ags       :     2.353448  s :     2.353448
      pz      :     2.031052  p :     6.389421
      px      :     2.040012
      py      :     2.318356
      dz2     :     1.980843  d :     9.828855
      dxz     :     1.989371
      dyz     :     1.945674
      dx2y2   :     1.961519
      dxy     :     1.951447
      f0      :     0.000382  f :     0.005512
      f+1     :     0.000166
      f-1     :     0.001237
      f+2     :     0.000646
      f-2     :     0.000254
      f+3     :     0.001058
      f-3     :     0.001771
      g0      :     0.000006  g :     0.000060
      g+1     :     0.000001
      g-1     :     0.000006
      g+2     :     0.000011
      g-2     :     0.000003
      g+3     :     0.000003
      g-3     :     0.000005
      g+4     :     0.000014
      g-4     :     0.000013
  1 Ags       :     2.396806  s :     2.396806
      pz      :     2.029594  p :     6.221521
      px      :     2.150829
      py      :     2.041099
      dz2     :     1.991093  d :     9.911933
      dxz     :     1.964075
      dyz     :     1.993652
      dx2y2   :     1.992347
      dxy     :     1.970765
      f0      :     0.000279  f :     0.002469
      f+1     :     0.000353
      f-1     :     0.000097
      f+2     :     0.000504
      f-2     :     0.000294
      f+3     :     0.000509
      f-3     :     0.000433
      g0      :     0.000002  g :     0.000023
      g+1     :     0.000003
      g-1     :     0.000001
      g+2     :     0.000002
      g-2     :     0.000001
      g+3     :     0.000004
      g-3     :     0.000003
      g+4     :     0.000004
      g-4     :     0.000003
  2 Ags       :     2.396982  s :     2.396982
      pz      :     2.114738  p :     6.221447
      px      :     2.052348
      py      :     2.054362
      dz2     :     1.974156  d :     9.911821
      dxz     :     1.984626
      dyz     :     1.981798
      dx2y2   :     1.979706
      dxy     :     1.991534
      f0      :     0.000688  f :     0.002468
      f+1     :     0.000315
      f-1     :     0.000318
      f+2     :     0.000472
      f-2     :     0.000204
      f+3     :     0.000229
      f-3     :     0.000241
      g0      :     0.000006  g :     0.000023
      g+1     :     0.000003
      g-1     :     0.000003
      g+2     :     0.000003
      g-2     :     0.000001
      g+3     :     0.000003
      g-3     :     0.000003
      g+4     :     0.000001
      g-4     :     0.000002
  3 Ags       :     2.396981  s :     2.396981
      pz      :     2.114738  p :     6.221447
      px      :     2.052348
      py      :     2.054362
      dz2     :     1.974156  d :     9.911821
      dxz     :     1.984626
      dyz     :     1.981798
      dx2y2   :     1.979706
      dxy     :     1.991534
      f0      :     0.000688  f :     0.002468
      f+1     :     0.000315
      f-1     :     0.000318
      f+2     :     0.000472
      f-2     :     0.000204
      f+3     :     0.000229
      f-3     :     0.000241
      g0      :     0.000006  g :     0.000023
      g+1     :     0.000003
      g-1     :     0.000003
      g+2     :     0.000003
      g-2     :     0.000001
      g+3     :     0.000003
      g-3     :     0.000003
      g+4     :     0.000001
      g-4     :     0.000002
  4 N s       :     2.886499  s :     2.886499
      pz      :     1.113203  p :     3.485028
      px      :     1.117510
      py      :     1.254315
      dz2     :     0.045108  d :     0.212187
      dxz     :     0.028220
      dyz     :     0.041834
      dx2y2   :     0.067103
      dxy     :     0.029922
      f0      :     0.000075  f :     0.008678
      f+1     :     0.001835
      f-1     :     0.002149
      f+2     :     0.000456
      f-2     :     0.002293
      f+3     :     0.000727
      f-3     :     0.001142
  5 H s       :     0.640521  s :     0.640521
      pz      :     0.136670  p :     0.381360
      px      :     0.098795
      py      :     0.145895
      dz2     :     0.015624  d :     0.055486
      dxz     :     0.012189
      dyz     :     0.014899
      dx2y2   :     0.007054
      dxy     :     0.005722
  6 H s       :     0.640521  s :     0.640521
      pz      :     0.136670  p :     0.381360
      px      :     0.098795
      py      :     0.145895
      dz2     :     0.015624  d :     0.055486
      dxz     :     0.012189
      dyz     :     0.014899
      dx2y2   :     0.007054
      dxy     :     0.005722
  7 H s       :     0.640508  s :     0.640508
      pz      :     0.086206  p :     0.381349
      px      :     0.163891
      py      :     0.131251
      dz2     :     0.005023  d :     0.055486
      dxz     :     0.015899
      dyz     :     0.000650
      dx2y2   :     0.014381
      dxy     :     0.019533


                      *****************************
                      * MAYER POPULATION ANALYSIS *
                      *****************************

  NA   - Mulliken gross atomic population
  ZA   - Total nuclear charge
  QA   - Mulliken gross atomic charge
  VA   - Mayer's total valence
  BVA  - Mayer's bonded valence
  FA   - Mayer's free valence

  ATOM       NA         ZA         QA         VA         BVA        FA
  0 Ag    18.5769    19.0000     0.4231     1.2995     1.2995    -0.0000
  1 Ag    18.6512    19.0000     0.3488     1.2908     1.2908    -0.0000
  2 Ag    18.6524    19.0000     0.3476     1.2919     1.2919    -0.0000
  3 Ag    18.6524    19.0000     0.3476     1.2919     1.2919    -0.0000
  4 N      7.1536     7.0000    -0.1536     3.3469     3.3469     0.0000
  5 H      0.7713     1.0000     0.2287     1.0713     1.0713     0.0000
  6 H      0.7713     1.0000     0.2287     1.0713     1.0713     0.0000
  7 H      0.7710     1.0000     0.2290     1.0709     1.0709    -0.0000

  Mayer bond orders larger than 0.100000
B(  0-Ag,  1-Ag) :   0.2404 B(  0-Ag,  2-Ag) :   0.2405 B(  0-Ag,  3-Ag) :   0.2405 
B(  0-Ag,  4-N ) :   0.5167 B(  1-Ag,  2-Ag) :   0.5335 B(  1-Ag,  3-Ag) :   0.5335 
B(  2-Ag,  3-Ag) :   0.5343 B(  4-N ,  5-H ) :   0.9722 B(  4-N ,  6-H ) :   0.9722 
B(  4-N ,  7-H ) :   0.9720 

-------
TIMINGS
-------

Total SCF time: 0 days 0 hours 0 min 5 sec 

Total time                  ....       5.041 sec
Sum of individual times     ....       4.828 sec  ( 95.8%)

Fock matrix formation       ....       2.563 sec  ( 50.8%)
  Split-RI-J                ....       1.468 sec  ( 57.3% of F)
  XC integration            ....       1.024 sec  ( 40.0% of F)
    Basis function eval.    ....       0.123 sec  ( 12.0% of XC)
    Density eval.           ....       0.217 sec  ( 21.2% of XC)
    XC-Functional eval.     ....       0.055 sec  (  5.4% of XC)
    XC-Potential eval.      ....       0.385 sec  ( 37.6% of XC)
Diagonalization             ....       0.178 sec  (  3.5%)
Density matrix formation    ....       0.017 sec  (  0.3%)
Population analysis         ....       0.015 sec  (  0.3%)
Initial guess               ....       1.417 sec  ( 28.1%)
Orbital Transformation      ....       0.000 sec  (  0.0%)
Orbital Orthonormalization  ....       0.000 sec  (  0.0%)
DIIS solution               ....       0.088 sec  (  1.7%)
Grid generation             ....       0.548 sec  ( 10.9%)


-------------------------------------------------------------------------------
                          DFT DISPERSION CORRECTION                            
                                                                               
                              DFTD3 V3.1  Rev 1                                
                          USING Becke-Johnson damping                          
-------------------------------------------------------------------------------
The TPSS functional is recognized
Active option DFTDOPT                   ...         4   

molecular C6(AA) [au] = 5557.993231 


            DFT-D V3
 parameters
 s6 scaling factor         :     1.0000 
 a1 scaling factor         :     0.4535 
 s8 scaling factor         :     1.9435 
 a2 scaling factor         :     4.4752 
 ad hoc parameters k1-k3   :    16.0000     1.3333    -4.0000 

 Edisp/kcal,au: -9.721430132191  -0.015492083382 
 E6   /kcal   :  -3.364282429 
 E8   /kcal   :  -6.357147703 
 % E8         :  65.393132663 

-------------------------   ----------------
Dispersion correction           -0.015492083
-------------------------   ----------------


-------------------------   --------------------
FINAL SINGLE POINT ENERGY      -643.874457969229
-------------------------   --------------------


                            ***************************************
                            *     ORCA property calculations      *
                            ***************************************

                                    ---------------------
                                    Active property flags
                                    ---------------------
   (+) Dipole Moment


------------------------------------------------------------------------------
                       ORCA ELECTRIC PROPERTIES CALCULATION
------------------------------------------------------------------------------

Dipole Moment Calculation                       ... on
Quadrupole Moment Calculation                   ... off
Polarizability Calculation                      ... off
GBWName                                         ... Ag04C2_NH3_A.gbw
Electron density file                           ... Ag04C2_NH3_A.scfp
The origin for moment calculation is the CENTER OF MASS  = ( 0.017258, -0.098075  0.000000)

-------------
DIPOLE MOMENT
-------------
                                X             Y             Z
Electronic contribution:      8.66274     -49.20719      -0.00000
Nuclear contribution   :     -9.00166      51.14183       0.00000
                        -----------------------------------------
Total Dipole Moment    :     -0.33892       1.93464      -0.00000
                        -----------------------------------------
Magnitude (a.u.)       :      1.96411
Magnitude (Debye)      :      4.99236



--------------------
Rotational spectrum 
--------------------
 
Rotational constants in cm-1:     0.020466     0.015199     0.015198 
Rotational constants in MHz :   613.555994   455.656791   455.636329 

 Dipole components along the rotational axes: 
x,y,z [a.u.] :    -1.964106    -0.000000    -0.002179 
x,y,z [Debye]:    -4.992361    -0.000000    -0.005538 

 

Timings for individual modules:

Sum of individual times         ...        7.267 sec (=   0.121 min)
GTO integral calculation        ...        1.825 sec (=   0.030 min)  25.1 %
SCF iterations                  ...        5.442 sec (=   0.091 min)  74.9 %
                             ****ORCA TERMINATED NORMALLY****
TOTAL RUN TIME: 0 days 0 hours 0 minutes 7 seconds 876 msec
