
                                 *****************
                                 * O   R   C   A *
                                 *****************

           --- An Ab Initio, DFT and Semiempirical electronic structure package ---

                  #######################################################
                  #                        -***-                        #
                  #          Department of theory and spectroscopy      #
                  #               Directorship: Frank Neese             #
                  #        Max Planck Institute fuer Kohlenforschung    #
                  #                Kaiser Wilhelm Platz 1               #
                  #                 D-45470 Muelheim/Ruhr               #
                  #                      Germany                        #
                  #                                                     #
                  #                  All rights reserved                #
                  #                        -***-                        #
                  #######################################################


                         Program Version 4.2.0 -  RELEASE  -


 With contributions from (in alphabetic order):
   Daniel Aravena         : Magnetic Suceptibility
   Michael Atanasov       : Ab Initio Ligand Field Theory (pilot matlab implementation)
   Alexander A. Auer      : GIAO ZORA, VPT2
   Ute Becker             : Parallelization
   Giovanni Bistoni       : ED, misc. LED, open-shell LED, HFLED
   Martin Brehm           : Molecular dynamics
   Dmytro Bykov           : SCF Hessian
   Vijay G. Chilkuri      : MRCI spin determinant printing, contributions to CSF-ICE
   Dipayan Datta          : RHF DLPNO-CCSD density
   Achintya Kumar Dutta   : EOM-CC, STEOM-CC
   Dmitry Ganyushin       : Spin-Orbit,Spin-Spin,Magnetic field MRCI
   Miquel Garcia          : C-PCM Hessian, Gaussian charge scheme
   Yang Guo               : DLPNO-NEVPT2, CIM, IAO-localization
   Andreas Hansen         : Spin unrestricted coupled pair/coupled cluster methods
   Benjamin Helmich-Paris : CASSCF linear response (MC-RPA)
   Lee Huntington         : MR-EOM, pCC
   Robert Izsak           : Overlap fitted RIJCOSX, COSX-SCS-MP3, EOM
   Christian Kollmar      : KDIIS, OOCD, Brueckner-CCSD(T), CCSD density
   Simone Kossmann        : Meta GGA functionals, TD-DFT gradient, OOMP2, MP2 Hessian
   Martin Krupicka        : AUTO-CI
   Lucas Lang             : DCDCAS
   Dagmar Lenk            : GEPOL surface, SMD
   Dimitrios Liakos       : Extrapolation schemes; Compound Job, initial MDCI parallelization
   Dimitrios Manganas     : Further ROCIS development; embedding schemes
   Dimitrios Pantazis     : SARC Basis sets
   Taras Petrenko         : DFT Hessian,TD-DFT gradient, ASA, ECA, R-Raman, ABS, FL, XAS/XES, NRVS
   Peter Pinski           : DLPNO-MP2, DLPNO-MP2 Gradient
   Christoph Reimann      : Effective Core Potentials
   Marius Retegan         : Local ZFS, SOC
   Christoph Riplinger    : Optimizer, TS searches, QM/MM, DLPNO-CCSD(T), (RO)-DLPNO pert. Triples
   Tobias Risthaus        : Range-separated hybrids, TD-DFT gradient, RPA, STAB
   Michael Roemelt        : Original ROCIS implementation
   Masaaki Saitow         : Open-shell DLPNO-CCSD energy and density
   Barbara Sandhoefer     : DKH picture change effects
   Avijit Sen             : IP-ROCIS
   Kantharuban Sivalingam : CASSCF convergence, NEVPT2, FIC-MRCI
   Bernardo de Souza      : ESD, SOC TD-DFT
   Georgi Stoychev        : AutoAux, RI-MP2 NMR
   Willem Van den Heuvel  : Paramagnetic NMR
   Boris Wezisla          : Elementary symmetry handling
   Frank Wennmohs         : Technical directorship


 We gratefully acknowledge several colleagues who have allowed us to
 interface, adapt or use parts of their codes:
   Stefan Grimme, W. Hujo, H. Kruse,             : VdW corrections, initial TS optimization,
                  C. Bannwarth                     DFT functionals, gCP, sTDA/sTD-DF
   Ed Valeev, F. Pavosevic, A. Kumar             : LibInt (2-el integral package), F12 methods
   Garnet Chan, S. Sharma, J. Yang, R. Olivares  : DMRG
   Ulf Ekstrom                                   : XCFun DFT Library
   Mihaly Kallay                                 : mrcc  (arbitrary order and MRCC methods)
   Andreas Klamt, Michael Diedenhofen            : otool_cosmo (COSMO solvation model)
   Jiri Pittner, Ondrej Demel                    : Mk-CCSD
   Frank Weinhold                                : gennbo (NPA and NBO analysis)
   Christopher J. Cramer and Donald G. Truhlar   : smd solvation model
   Lars Goerigk                                  : TD-DFT with DH, B97 family of functionals
   V. Asgeirsson, H. Jonsson                     : NEB implementation
   FAccTs GmbH                                   : IRC, NEB, NEB-TS, Multilevel, MM, QM/MM, CI optimization
   S Lehtola, MJT Oliveira, MAL Marques          : LibXC Library


 Your calculation uses the libint2 library for the computation of 2-el integrals
 For citations please refer to: http://libint.valeyev.net

 Your ORCA version has been built with support for libXC version: 4.2.3
 For citations please refer to: https://tddft.org/programs/libxc/

 This ORCA versions uses:
   CBLAS   interface :  Fast vector & matrix operations
   LAPACKE interface :  Fast linear algebra routines
   SCALAPACK package :  Parallel linear algebra routines


Your calculation utilizes the atom-pairwise dispersion correction
with the Becke-Johnson damping scheme (D3BJ)
Cite in your paper:
S.Grimme, S.Ehrlich, L.Goerigk, J Comput Chem, (2011), 32, 1456–1465 
S.Grimme, J.Antony, S.Ehrlich and H.Krieg, J.Chem.Phys., 132, (2010), 154104 
   

----- Orbital basis set information -----
Your calculation utilizes the basis: def2-TZVPPD
   F. Weigend and R. Ahlrichs, Phys. Chem. Chem. Phys. 7, 3297 (2005).
   D. Rappoport and F. Furche, J. Chem. Phys. 133 134105 (2010).

----- AuxJ basis set information -----
Your calculation utilizes the auxiliary basis: def2/J
   F. Weigend, Phys. Chem. Chem. Phys. 8, 1057 (2006).

cite the ECPs for Ag [Def2-ECP] as follows:
Ce-Yb(ecp-28): M. Dolg, H. Stoll, H.Preuss, J. Chem. Phys., 1989, 90, 1730-1734.
Y-Cd(ecp-28), Hf-Hg(ecp-46): D. Andrae,U. Haeussermann, M. Dolg, H. Stoll, H. Preuss, Theor. Chim. Acta, 1990, 77, 123-141.
In-Sb(ecp-28), Tl-Bi(ecp-46): B. Metz, H. Stoll, M. Dolg, J. Chem. Phys., 2000, 113, 2563-2569.
Te-Xe(ecp-28), Po-Rn(ecp-46): K. A. Peterson, D. Figgen, E. Goll, H. Stoll, M. Dolg, J. Chem. Phys., 2003, 119, 11113-11123.
Rb(ecp-28), Cs(ecp-46): T. Leininger, A. Nicklass, W. Kuechle, H. Stoll, M. Dolg, A. Bergner, Chem. Phys. Lett., 1996, 255, 274-280.
Sr(ecp-28), Ba(ecp-46): M. Kaupp, P. V. Schleyer, H. Stoll and H. Preuss, J. Chem. Phys., 1991, 94, 1360-1366.
La(ecp-46): M. Dolg, H. Stoll, A. Savin, H. Preuss, Theor. Chim. Acta, 1989, 75, 173-194.
Lu(ecp-28): X. Cao, M. Dolg, J. Chem. Phys., 2001, 115, 7348-7355.

ECP parameters for Ag [Def2-ECP] have been obtained from:
TURBOMOLE (7.0.2)

================================================================================
                                        WARNINGS
                       Please study these warnings very carefully!
================================================================================


INFO   : the flag for use of LIBINT has been found!

================================================================================
                                       INPUT FILE
================================================================================
NAME = Ag04C2_NH3_F.in
|  1> #
|  2> # Ag04C2_NH3_F TPSS-D3BJ/Def2-TZVPPD
|  3> #
|  4> ! tpss d3bj def2-tzvppd def2/j grid4 nofinalgrid
|  5> 
|  6> *xyz 2 1
|  7> Ag       0.000000    1.593354   -0.403942 
|  8> Ag       1.379885   -0.796677   -0.403942 
|  9> Ag      -1.379885   -0.796677   -0.403942 
| 10> Ag       0.000000    0.000000    1.894943 
| 11> N        0.000000    0.000000   -3.082630 
| 12> H        0.808649    0.466874   -3.509356 
| 13> H       -0.000000   -0.933748   -3.509356 
| 14> H       -0.808649    0.466874   -3.509356 
| 15> *
| 16> 
| 17> %maxcore 5000
| 18> 
| 19> %pal
| 20> nprocs = 24
| 21> end
| 22> 
| 23> 
| 24>                          ****END OF INPUT****
================================================================================

                       ****************************
                       * Single Point Calculation *
                       ****************************

---------------------------------
CARTESIAN COORDINATES (ANGSTROEM)
---------------------------------
  Ag     0.000000    1.593354   -0.403942
  Ag     1.379885   -0.796677   -0.403942
  Ag    -1.379885   -0.796677   -0.403942
  Ag     0.000000    0.000000    1.894943
  N      0.000000    0.000000   -3.082630
  H      0.808649    0.466874   -3.509356
  H     -0.000000   -0.933748   -3.509356
  H     -0.808649    0.466874   -3.509356

----------------------------
CARTESIAN COORDINATES (A.U.)
----------------------------
  NO LB      ZA    FRAG     MASS         X           Y           Z
   0 Ag   19.0000*   0   107.870    0.000000    3.011003   -0.763340
   1 Ag   19.0000*   0   107.870    2.607605   -1.505501   -0.763340
   2 Ag   19.0000*   0   107.870   -2.607605   -1.505501   -0.763340
   3 Ag   19.0000*   0   107.870    0.000000    0.000000    3.580923
   4 N     7.0000    0    14.007    0.000000    0.000000   -5.825326
   5 H     1.0000    0     1.008    1.528125    0.882264   -6.631722
   6 H     1.0000    0     1.008   -0.000000   -1.764528   -6.631722
   7 H     1.0000    0     1.008   -1.528125    0.882264   -6.631722
* core charge reduced due to ECP

--------------------------------
INTERNAL COORDINATES (ANGSTROEM)
--------------------------------
 Ag     0   0   0     0.000000000000     0.00000000     0.00000000
 Ag     1   0   0     2.759770061832     0.00000000     0.00000000
 Ag     2   1   0     2.759770000000    60.00000074     0.00000000
 Ag     2   1   3     2.797078672254    60.44025964   289.11372282
 N      2   1   3     3.116752517750    63.72169801    73.43683105
 H      5   2   1     1.026635093961    97.16631830    93.55927958
 H      5   2   1     1.026635478921    97.16630282   198.65679622
 H      5   2   1     1.026635093961   145.30586426   326.10806523

---------------------------
INTERNAL COORDINATES (A.U.)
---------------------------
 Ag     0   0   0     0.000000000000     0.00000000     0.00000000
 Ag     1   0   0     5.215209609458     0.00000000     0.00000000
 Ag     2   1   0     5.215209492612    60.00000074     0.00000000
 Ag     2   1   3     5.285712665592    60.44025964   289.11372282
 N      2   1   3     5.889808685756    63.72169801    73.43683105
 H      5   2   1     1.940059167059    97.16631830    93.55927958
 H      5   2   1     1.940059894528    97.16630282   198.65679622
 H      5   2   1     1.940059167059   145.30586426   326.10806523

---------------------
BASIS SET INFORMATION
---------------------
There are 3 groups of distinct atoms

 Group   1 Type Ag  : 7s7p6d2f1g contracted to 6s4p3d2f1g pattern {211111/4111/411/11/1}
 Group   2 Type N   : 12s6p3d1f contracted to 6s3p3d1f pattern {621111/411/111/1}
 Group   3 Type H   : 5s3p1d contracted to 3s3p1d pattern {311/111/1}

Atom   0Ag   basis set group =>   1
Atom   1Ag   basis set group =>   1
Atom   2Ag   basis set group =>   1
Atom   3Ag   basis set group =>   1
Atom   4N    basis set group =>   2
Atom   5H    basis set group =>   3
Atom   6H    basis set group =>   3
Atom   7H    basis set group =>   3
---------------------------------
AUXILIARY/J BASIS SET INFORMATION
---------------------------------
There are 3 groups of distinct atoms

 Group   1 Type Ag  : 11s5p5d3f3g contracted to 8s5p5d2f3g pattern {41111111/11111/11111/21/111}
 Group   2 Type N   : 12s5p4d2f1g contracted to 6s4p3d1f1g pattern {711111/2111/211/2/1}
 Group   3 Type H   : 5s2p1d contracted to 3s1p1d pattern {311/2/1}

Atom   0Ag   basis set group =>   1
Atom   1Ag   basis set group =>   1
Atom   2Ag   basis set group =>   1
Atom   3Ag   basis set group =>   1
Atom   4N    basis set group =>   2
Atom   5H    basis set group =>   3
Atom   6H    basis set group =>   3
Atom   7H    basis set group =>   3
-------------------------
ECP PARAMETER INFORMATION
-------------------------

 Group 1, Type Ag ECP Def2-ECP (replacing 28 core electrons, lmax=3)

Atom   0Ag   ECP group =>   1
Atom   1Ag   ECP group =>   1
Atom   2Ag   ECP group =>   1
Atom   3Ag   ECP group =>   1



           ************************************************************
           *        Program running with 24 parallel MPI-processes    *
           *              working on a common directory               *
           ************************************************************
------------------------------------------------------------------------------
                           ORCA GTO INTEGRAL CALCULATION
                           -- RI-GTO INTEGRALS CHOSEN --
------------------------------------------------------------------------------

                         BASIS SET STATISTICS AND STARTUP INFO

Gaussian basis set:
 # of primitive gaussian shells          ...  141
 # of primitive gaussian functions       ...  433
 # of contracted shells                  ...   98
 # of contracted basis functions         ...  312
 Highest angular momentum                ...    4
 Maximum contraction depth               ...    6
Auxiliary gaussian basis set:
 # of primitive gaussian shells          ...  156
 # of primitive gaussian functions       ...  514
 # of contracted shells                  ...  122
 # of contracted aux-basis functions     ...  438
 Highest angular momentum                ...    4
 Maximum contraction depth               ...    7
Ratio of auxiliary to basis functions    ...  1.40
Integral package used                  ... LIBINT
 One Electron integrals                  
   ECP integrals                         ... done
 Ordering auxiliary basis shells         ... done
 Integral threshhold             Thresh  ...  1.000e-10
 Primitive cut-off               TCut    ...  1.000e-11
 Pre-screening matrix                    ... done
 Shell pair data                         ... 
 Ordering of the shell pairs             ... done (   0.001 sec) 4414 of 4851 pairs
 Determination of significant pairs      ... done (   0.000 sec)
 Creation of shell pair data             ... done (   0.000 sec)
 Storage of shell pair data              ... done (   0.012 sec)
 Shell pair data done in (   0.014 sec)
 Computing two index integrals           ... done
 Cholesky decomposition of the V-matrix  ... done


Timings:
 Total evaluation time                   ...   1.511 sec (  0.025 min)
 One electron matrix time                ...   1.253 sec (  0.021 min) = 82.9%
 Schwartz matrix evaluation time         ...   0.213 sec (  0.004 min) = 14.1%
 Two index repulsion integral time       ...   0.003 sec (  0.000 min) =  0.2%
 Cholesky decomposition of V             ...   0.004 sec (  0.000 min) =  0.3%
 Three index repulsion integral time     ...   0.000 sec (  0.000 min) =  0.0%



           ************************************************************
           *        Program running with 24 parallel MPI-processes    *
           *              working on a common directory               *
           ************************************************************
-------------------------------------------------------------------------------
                                 ORCA SCF
-------------------------------------------------------------------------------

------------
SCF SETTINGS
------------
Hamiltonian:
 Density Functional     Method          .... DFT(GTOs)
 Exchange Functional    Exchange        .... TPSS
 Correlation Functional Correlation     .... TPSS
 LDA part of GGA corr.  LDAOpt          .... PW91-LDA
 Gradients option       PostSCFGGA      .... off
   Density functional embedding theory  .... OFF
   NL short-range parameter             ....  5.000000
 RI-approximation to the Coulomb term is turned on
   Number of auxiliary basis functions  .... 438


General Settings:
 Integral files         IntName         .... Ag04C2_NH3_F
 Hartree-Fock type      HFTyp           .... RHF
 Total Charge           Charge          ....    2
 Multiplicity           Mult            ....    1
 Number of Electrons    NEL             ....   84
 Basis Dimension        Dim             ....  312
 Nuclear Repulsion      ENuc            ....    537.0150886910 Eh

Convergence Acceleration:
 DIIS                   CNVDIIS         .... on
   Start iteration      DIISMaxIt       ....    12
   Startup error        DIISStart       ....  0.200000
   # of expansion vecs  DIISMaxEq       ....     5
   Bias factor          DIISBfac        ....   1.050
   Max. coefficient     DIISMaxC        ....  10.000
 Newton-Raphson         CNVNR           .... off
 SOSCF                  CNVSOSCF        .... off
 Level Shifting         CNVShift        .... on
   Level shift para.    LevelShift      ....    0.2500
   Turn off err/grad.   ShiftErr        ....    0.0010
 Zerner damping         CNVZerner       .... off
 Static damping         CNVDamp         .... on
   Fraction old density DampFac         ....    0.7000
   Max. Damping (<1)    DampMax         ....    0.9800
   Min. Damping (>=0)   DampMin         ....    0.0000
   Turn off err/grad.   DampErr         ....    0.1000
 Fernandez-Rico         CNVRico         .... off

SCF Procedure:
 Maximum # iterations   MaxIter         ....   125
 SCF integral mode      SCFMode         .... Direct
   Integral package                     .... LIBINT
 Reset frequency        DirectResetFreq ....    20
 Integral Threshold     Thresh          ....  1.000e-10 Eh
 Primitive CutOff       TCut            ....  1.000e-11 Eh

Convergence Tolerance:
 Convergence Check Mode ConvCheckMode   .... Total+1el-Energy
 Convergence forced     ConvForced      .... 0
 Energy Change          TolE            ....  1.000e-06 Eh
 1-El. energy change                    ....  1.000e-03 Eh
 DIIS Error             TolErr          ....  1.000e-06


Diagonalization of the overlap matrix:
Smallest eigenvalue                        ... 2.571e-04
Time for diagonalization                   ...    0.013 sec
Threshold for overlap eigenvalues          ... 1.000e-08
Number of eigenvalues below threshold      ... 0
Time for construction of square roots      ...    0.012 sec
Total time needed                          ...    0.025 sec

-------------------
DFT GRID GENERATION
-------------------

General Integration Accuracy     IntAcc      ...  4.670
Radial Grid Type                 RadialGrid  ... Gauss-Chebyshev
Angular Grid (max. acc.)         AngularGrid ... Lebedev-302
Angular grid pruning method      GridPruning ... 3 (G Style)
Weight generation scheme         WeightScheme... Becke
Basis function cutoff            BFCut       ...    1.0000e-10
Integration weight cutoff        WCut        ...    1.0000e-14
Grids for H and He will be reduced by one unit

# of grid points (after initial pruning)     ...  59026 (   0.0 sec)
# of grid points (after weights+screening)   ...  56864 (   0.0 sec)
nearest neighbour list constructed           ...    0.0 sec
Grid point re-assignment to atoms done       ...    0.0 sec
Grid point division into batches done        ...    0.3 sec
Reduced shell lists constructed in    0.4 sec

Total number of grid points                  ...    56864
Total number of batches                      ...      892
Average number of points per batch           ...       63
Average number of grid points per atom       ...     7108
Average number of shells per batch           ...    26.18 (26.71%)
Average number of basis functions per batch  ...    69.21 (22.18%)
Average number of large shells per batch     ...    18.05 (68.95%)
Average number of large basis fcns per batch ...    45.79 (66.17%)
Maximum spatial batch extension              ...  24.21, 20.12, 27.87 au
Average spatial batch extension              ...   0.35,  0.32,  0.37 au

Time for grid setup =    0.440 sec

------------------------------
INITIAL GUESS: MODEL POTENTIAL
------------------------------
Loading Hartree-Fock densities                     ... done
  calling /sw/apps/orca/orca_4_2_0_linux_x86-64_openmpi314/orca Ag04C2_NH3_F_atom47.inp > Ag04C2_NH3_F_atom47.out in order to generate an atomic fitting density for atom 0 (Ag with ECP) on-the-fly... 
    atom 0 (Ag), assumed electronic state with S=2: 1s2 2s2 2p6 3s2 3p6 4s2 3d10 4p6 5s2 4d9           ... done
Calculating cut-offs                               ... done
Setting up the integral package                    ... done
Initializing the effective Hamiltonian             ... done
Starting the Coulomb interaction                   ... done (   0.0 sec)
Reading the grid                                   ... done
Mapping shells                                     ... done
Starting the XC term evaluation                    ... done (   0.0 sec)
  promolecular density results
     # of electrons  =    198.000391209
     EX              =   -581.192868433
     EC              =    -10.291424967
     EX+EC           =   -591.484293400
Transforming the Hamiltonian                       ... done (   0.0 sec)
Diagonalizing the Hamiltonian                      ... done (   0.0 sec)
Back transforming the eigenvectors                 ... done (   0.0 sec)
Now organizing SCF variables                       ... done
                      ------------------
                      INITIAL GUESS DONE (   1.7 sec)
                      ------------------
--------------
SCF ITERATIONS
--------------
ITER       Energy         Delta-E        Max-DP      RMS-DP      [F,P]     Damp
               ***  Starting incremental Fock matrix formation  ***
  0   -643.4370362456   0.000000000000 0.08306506  0.00142714  0.5150522 0.7000
  1   -643.6240384076  -0.187002161917 0.03551587  0.00074713  0.3358710 0.7000
  2   -643.6820374221  -0.057999014588 0.01752735  0.00027876  0.2224334 0.7000
                               ***Turning on DIIS***
  3   -643.7201860769  -0.038148654773 0.01010069  0.00017025  0.1526723 0.7000
  4   -643.7491014631  -0.028915386209 0.00571715  0.00013008  0.1069388 0.7000
  5   -643.7694603747  -0.020358911581 0.01330901  0.00031465  0.0750312 0.0000
  6   -643.8167012461  -0.047240871379 0.00179662  0.00003191  0.0010547 0.0000
  7   -643.8167163367  -0.000015090642 0.00117829  0.00001454  0.0011567 0.0000
  8   -643.8167239057  -0.000007569013 0.00139159  0.00001408  0.0002576 0.0000
  9   -643.8167255339  -0.000001628177 0.00021025  0.00000294  0.0002485 0.0000
 10   -643.8167255957  -0.000000061802 0.00031663  0.00000218  0.0001759 0.0000
                 **** Energy Check signals convergence ****

               *****************************************************
               *                     SUCCESS                       *
               *           SCF CONVERGED AFTER  11 CYCLES          *
               *****************************************************


----------------
TOTAL SCF ENERGY
----------------

Total Energy       :         -643.81672565 Eh          -17519.14376 eV

Components:
Nuclear Repulsion  :          537.01508869 Eh           14612.92347 eV
Electronic Energy  :        -1180.83181434 Eh          -32132.06723 eV
One Electron Energy:        -2163.69253795 Eh          -58877.06721 eV
Two Electron Energy:          982.86072360 Eh           26744.99998 eV

Virial components:
Potential Energy   :         -924.70035766 Eh          -25162.37596 eV
Kinetic Energy     :          280.88363201 Eh            7643.23220 eV
Virial Ratio       :            3.29211194


DFT components:
N(Alpha)           :       41.999986705143 electrons
N(Beta)            :       41.999986705143 electrons
N(Total)           :       83.999973410287 electrons
E(X)               :      -60.359960808959 Eh       
E(C)               :       -3.594342451994 Eh       
E(XC)              :      -63.954303260953 Eh       
DFET-embed. en.    :        0.000000000000 Eh       

---------------
SCF CONVERGENCE
---------------

  Last Energy change         ...   -5.7849e-08  Tolerance :   1.0000e-06
  Last MAX-Density change    ...    1.7425e-04  Tolerance :   1.0000e-05
  Last RMS-Density change    ...    1.0774e-06  Tolerance :   1.0000e-06
  Last DIIS Error            ...    4.3850e-05  Tolerance :   1.0000e-06

             **** THE GBW FILE WAS UPDATED (Ag04C2_NH3_F.gbw) ****
             **** DENSITY FILE WAS UPDATED (Ag04C2_NH3_F.scfp) ****
             **** ENERGY FILE WAS UPDATED (Ag04C2_NH3_F.en.tmp) ****
             **** THE GBW FILE WAS UPDATED (Ag04C2_NH3_F.gbw) ****
             **** DENSITY FILE WAS UPDATED (Ag04C2_NH3_F.scfp) ****
----------------
ORBITAL ENERGIES
----------------

  NO   OCC          E(Eh)            E(eV) 
   0   2.0000     -14.407659      -392.0523 
   1   2.0000      -3.944852      -107.3449 
   2   2.0000      -3.944573      -107.3373 
   3   2.0000      -3.944567      -107.3371 
   4   2.0000      -3.939395      -107.1964 
   5   2.0000      -2.570769       -69.9542 
   6   2.0000      -2.568592       -69.8949 
   7   2.0000      -2.568591       -69.8949 
   8   2.0000      -2.567054       -69.8531 
   9   2.0000      -2.567053       -69.8531 
  10   2.0000      -2.566405       -69.8354 
  11   2.0000      -2.566171       -69.8291 
  12   2.0000      -2.565240       -69.8037 
  13   2.0000      -2.565234       -69.8036 
  14   2.0000      -2.562892       -69.7398 
  15   2.0000      -2.560761       -69.6819 
  16   2.0000      -2.560761       -69.6819 
  17   2.0000      -1.107941       -30.1486 
  18   2.0000      -0.725050       -19.7296 
  19   2.0000      -0.725047       -19.7295 
  20   2.0000      -0.682004       -18.5583 
  21   2.0000      -0.657637       -17.8952 
  22   2.0000      -0.654431       -17.8080 
  23   2.0000      -0.654418       -17.8076 
  24   2.0000      -0.645149       -17.5554 
  25   2.0000      -0.645149       -17.5554 
  26   2.0000      -0.635809       -17.3013 
  27   2.0000      -0.630552       -17.1582 
  28   2.0000      -0.630542       -17.1579 
  29   2.0000      -0.613000       -16.6806 
  30   2.0000      -0.612337       -16.6625 
  31   2.0000      -0.612329       -16.6623 
  32   2.0000      -0.611691       -16.6449 
  33   2.0000      -0.610450       -16.6112 
  34   2.0000      -0.610445       -16.6110 
  35   2.0000      -0.609106       -16.5746 
  36   2.0000      -0.609102       -16.5745 
  37   2.0000      -0.597252       -16.2521 
  38   2.0000      -0.596078       -16.2201 
  39   2.0000      -0.594331       -16.1726 
  40   2.0000      -0.594319       -16.1723 
  41   2.0000      -0.545195       -14.8355 
  42   0.0000      -0.440015       -11.9734 
  43   0.0000      -0.440009       -11.9733 
  44   0.0000      -0.425746       -11.5851 
  45   0.0000      -0.327910        -8.9229 
  46   0.0000      -0.316427        -8.6104 
  47   0.0000      -0.316426        -8.6104 
  48   0.0000      -0.299095        -8.1388 
  49   0.0000      -0.299053        -8.1376 
  50   0.0000      -0.299049        -8.1375 
  51   0.0000      -0.232722        -6.3327 
  52   0.0000      -0.192469        -5.2373 
  53   0.0000      -0.192466        -5.2373 
  54   0.0000      -0.187589        -5.1046 
  55   0.0000      -0.187586        -5.1045 
  56   0.0000      -0.184078        -5.0090 
  57   0.0000      -0.166484        -4.5303 
  58   0.0000      -0.166482        -4.5302 
  59   0.0000      -0.165565        -4.5053 
  60   0.0000      -0.136651        -3.7185 
  61   0.0000      -0.116129        -3.1600 
  62   0.0000      -0.107317        -2.9202 
  63   0.0000      -0.107314        -2.9202 
  64   0.0000      -0.101328        -2.7573 
  65   0.0000      -0.095428        -2.5967 
  66   0.0000      -0.095426        -2.5967 
  67   0.0000      -0.090137        -2.4527 
  68   0.0000      -0.078864        -2.1460 
  69   0.0000      -0.078862        -2.1459 
  70   0.0000      -0.066719        -1.8155 
  71   0.0000      -0.066716        -1.8154 
  72   0.0000      -0.057618        -1.5679 
  73   0.0000      -0.022504        -0.6124 
  74   0.0000      -0.022500        -0.6123 
  75   0.0000      -0.005627        -0.1531 
  76   0.0000       0.002565         0.0698 
  77   0.0000       0.002568         0.0699 
  78   0.0000       0.007459         0.2030 
  79   0.0000       0.027547         0.7496 
  80   0.0000       0.027556         0.7498 
  81   0.0000       0.031467         0.8563 
  82   0.0000       0.046746         1.2720 
  83   0.0000       0.051152         1.3919 
  84   0.0000       0.051153         1.3919 
  85   0.0000       0.076220         2.0741 
  86   0.0000       0.076223         2.0741 
  87   0.0000       0.091999         2.5034 
  88   0.0000       0.121373         3.3027 
  89   0.0000       0.149862         4.0780 
  90   0.0000       0.149887         4.0786 
  91   0.0000       0.180718         4.9176 
  92   0.0000       0.182095         4.9551 
  93   0.0000       0.182106         4.9554 
  94   0.0000       0.199348         5.4245 
  95   0.0000       0.199360         5.4249 
  96   0.0000       0.219614         5.9760 
  97   0.0000       0.238090         6.4788 
  98   0.0000       0.270999         7.3743 
  99   0.0000       0.271006         7.3744 
 100   0.0000       0.275682         7.5017 
 101   0.0000       0.275682         7.5017 
 102   0.0000       0.308315         8.3897 
 103   0.0000       0.308913         8.4060 
 104   0.0000       0.308950         8.4070 
 105   0.0000       0.323629         8.8064 
 106   0.0000       0.356205         9.6928 
 107   0.0000       0.356211         9.6930 
 108   0.0000       0.376118        10.2347 
 109   0.0000       0.376160        10.2358 
 110   0.0000       0.392514        10.6809 
 111   0.0000       0.407389        11.0856 
 112   0.0000       0.439197        11.9512 
 113   0.0000       0.439226        11.9519 
 114   0.0000       0.472019        12.8443 
 115   0.0000       0.527784        14.3617 
 116   0.0000       0.527793        14.3620 
 117   0.0000       0.553672        15.0662 
 118   0.0000       0.776384        21.1265 
 119   0.0000       0.788868        21.4662 
 120   0.0000       0.788940        21.4682 
 121   0.0000       0.803540        21.8654 
 122   0.0000       0.910636        24.7797 
 123   0.0000       0.910658        24.7803 
 124   0.0000       0.929682        25.2979 
 125   0.0000       0.929687        25.2981 
 126   0.0000       1.114180        30.3184 
 127   0.0000       1.116731        30.3878 
 128   0.0000       1.116749        30.3883 
 129   0.0000       1.155411        31.4403 
 130   0.0000       1.156345        31.4657 
 131   0.0000       1.156382        31.4667 
 132   0.0000       1.165593        31.7174 
 133   0.0000       1.167244        31.7623 
 134   0.0000       1.167244        31.7623 
 135   0.0000       1.170430        31.8490 
 136   0.0000       1.182943        32.1895 
 137   0.0000       1.193372        32.4733 
 138   0.0000       1.193386        32.4737 
 139   0.0000       1.201296        32.6889 
 140   0.0000       1.201308        32.6892 
 141   0.0000       1.203558        32.7505 
 142   0.0000       1.208266        32.8786 
 143   0.0000       1.215441        33.0738 
 144   0.0000       1.215451        33.0741 
 145   0.0000       1.220411        33.2091 
 146   0.0000       1.233406        33.5627 
 147   0.0000       1.236429        33.6449 
 148   0.0000       1.236434        33.6451 
 149   0.0000       1.237582        33.6763 
 150   0.0000       1.237584        33.6764 
 151   0.0000       1.252835        34.0914 
 152   0.0000       1.270517        34.5725 
 153   0.0000       1.274024        34.6680 
 154   0.0000       1.274036        34.6683 
 155   0.0000       1.292920        35.1821 
 156   0.0000       1.292924        35.1822 
 157   0.0000       1.305069        35.5127 
 158   0.0000       1.314826        35.7782 
 159   0.0000       1.315217        35.7889 
 160   0.0000       1.315254        35.7899 
 161   0.0000       1.386945        37.7407 
 162   0.0000       1.386957        37.7410 
 163   0.0000       1.400488        38.1092 
 164   0.0000       1.428216        38.8637 
 165   0.0000       1.428220        38.8639 
 166   0.0000       1.497740        40.7556 
 167   0.0000       1.514605        41.2145 
 168   0.0000       1.519888        41.3583 
 169   0.0000       1.519949        41.3599 
 170   0.0000       1.582436        43.0603 
 171   0.0000       1.582486        43.0616 
 172   0.0000       1.693715        46.0883 
 173   0.0000       1.693733        46.0888 
 174   0.0000       1.694706        46.1153 
 175   0.0000       1.717436        46.7338 
 176   0.0000       1.740574        47.3634 
 177   0.0000       1.740635        47.3651 
 178   0.0000       1.766017        48.0558 
 179   0.0000       1.766031        48.0561 
 180   0.0000       1.785779        48.5935 
 181   0.0000       1.798635        48.9433 
 182   0.0000       1.798767        48.9469 
 183   0.0000       1.800692        48.9993 
 184   0.0000       1.800772        49.0015 
 185   0.0000       1.810412        49.2638 
 186   0.0000       1.818115        49.4734 
 187   0.0000       1.829190        49.7748 
 188   0.0000       1.829251        49.7765 
 189   0.0000       1.941991        52.8443 
 190   0.0000       1.947320        52.9893 
 191   0.0000       1.947347        52.9900 
 192   0.0000       2.108496        57.3751 
 193   0.0000       2.279201        62.0202 
 194   0.0000       2.279268        62.0220 
 195   0.0000       2.296947        62.5031 
 196   0.0000       2.298862        62.5552 
 197   0.0000       2.398751        65.2733 
 198   0.0000       2.433011        66.2056 
 199   0.0000       2.433062        66.2070 
 200   0.0000       2.513241        68.3888 
 201   0.0000       2.663830        72.4865 
 202   0.0000       2.663832        72.4865 
 203   0.0000       2.777300        75.5742 
 204   0.0000       2.941222        80.0347 
 205   0.0000       2.994051        81.4723 
 206   0.0000       2.994057        81.4724 
 207   0.0000       3.075942        83.7006 
 208   0.0000       3.075950        83.7009 
 209   0.0000       3.218293        87.5742 
 210   0.0000       3.218363        87.5761 
 211   0.0000       3.221583        87.6637 
 212   0.0000       3.580998        97.4439 
 213   0.0000       3.619407        98.4891 
 214   0.0000       3.619420        98.4894 
 215   0.0000       3.699665       100.6730 
 216   0.0000       3.699724       100.6746 
 217   0.0000       3.721760       101.2742 
 218   0.0000       3.867874       105.2502 
 219   0.0000       3.867975       105.2529 
 220   0.0000       4.089268       111.2746 
 221   0.0000       4.151625       112.9715 
 222   0.0000       4.151682       112.9730 
 223   0.0000       4.255369       115.7945 
 224   0.0000       4.340213       118.1032 
 225   0.0000       4.340303       118.1057 
 226   0.0000       4.360098       118.6443 
 227   0.0000       4.362010       118.6963 
 228   0.0000       4.362072       118.6980 
 229   0.0000       4.374126       119.0260 
 230   0.0000       4.382186       119.2454 
 231   0.0000       4.385210       119.3276 
 232   0.0000       4.390634       119.4752 
 233   0.0000       4.390697       119.4769 
 234   0.0000       4.394696       119.5857 
 235   0.0000       4.413355       120.0935 
 236   0.0000       4.413421       120.0953 
 237   0.0000       4.424483       120.3963 
 238   0.0000       4.424575       120.3988 
 239   0.0000       4.424813       120.4053 
 240   0.0000       4.431340       120.5829 
 241   0.0000       4.440060       120.8202 
 242   0.0000       4.440082       120.8208 
 243   0.0000       4.440177       120.8234 
 244   0.0000       4.455331       121.2357 
 245   0.0000       4.455387       121.2372 
 246   0.0000       4.510651       122.7411 
 247   0.0000       4.569702       124.3479 
 248   0.0000       4.569795       124.3504 
 249   0.0000       4.585657       124.7821 
 250   0.0000       4.585743       124.7844 
 251   0.0000       4.591897       124.9519 
 252   0.0000       4.591959       124.9536 
 253   0.0000       4.624445       125.8376 
 254   0.0000       4.624451       125.8377 
 255   0.0000       4.936433       134.3272 
 256   0.0000       4.936596       134.3316 
 257   0.0000       5.009481       136.3149 
 258   0.0000       5.152787       140.2145 
 259   0.0000       5.153121       140.2235 
 260   0.0000       5.153156       140.2245 
 261   0.0000       5.153478       140.2333 
 262   0.0000       5.153793       140.2418 
 263   0.0000       5.154080       140.2497 
 264   0.0000       5.154341       140.2568 
 265   0.0000       5.154453       140.2598 
 266   0.0000       5.154581       140.2633 
 267   0.0000       5.154979       140.2741 
 268   0.0000       5.155150       140.2788 
 269   0.0000       5.155259       140.2817 
 270   0.0000       5.155656       140.2925 
 271   0.0000       5.156464       140.3145 
 272   0.0000       5.156466       140.3146 
 273   0.0000       5.156707       140.3211 
 274   0.0000       5.157071       140.3310 
 275   0.0000       5.157283       140.3368 
 276   0.0000       5.157363       140.3390 
 277   0.0000       5.158020       140.3569 
 278   0.0000       5.158106       140.3592 
 279   0.0000       5.159893       140.4078 
 280   0.0000       5.160147       140.4148 
 281   0.0000       5.160558       140.4259 
 282   0.0000       5.161635       140.4552 
 283   0.0000       5.161746       140.4582 
 284   0.0000       5.162100       140.4679 
 285   0.0000       5.162679       140.4836 
 286   0.0000       5.162816       140.4874 
 287   0.0000       5.162935       140.4906 
 288   0.0000       5.163625       140.5094 
 289   0.0000       5.163661       140.5104 
 290   0.0000       5.167750       140.6216 
 291   0.0000       5.176369       140.8562 
 292   0.0000       5.176540       140.8608 
 293   0.0000       5.176591       140.8622 
 294   0.0000       5.221986       142.0975 
 295   0.0000       5.523217       150.2944 
 296   0.0000       5.638637       153.4351 
 297   0.0000       5.638916       153.4427 
 298   0.0000       5.742351       156.2573 
 299   0.0000       5.742429       156.2594 
 300   0.0000       6.195887       168.5987 
 301   0.0000       6.439279       175.2217 
 302   0.0000       6.439332       175.2231 
 303   0.0000      32.343600       880.1141 
 304   0.0000      33.028090       898.7400 
 305   0.0000      33.332135       907.0135 
 306   0.0000      33.401009       908.8877 
 307   0.0000      33.401011       908.8877 
 308   0.0000     110.375586      3003.4724 
 309   0.0000     110.476636      3006.2221 
 310   0.0000     110.496129      3006.7525 
 311   0.0000     110.496133      3006.7526 

                    ********************************
                    * MULLIKEN POPULATION ANALYSIS *
                    ********************************

-----------------------
MULLIKEN ATOMIC CHARGES
-----------------------
   0 Ag:    0.437857
   1 Ag:    0.437894
   2 Ag:    0.437886
   3 Ag:    0.472418
   4 N :   -0.344270
   5 H :    0.185970
   6 H :    0.186276
   7 H :    0.185969
Sum of atomic charges:    2.0000000

--------------------------------
MULLIKEN REDUCED ORBITAL CHARGES
--------------------------------
  0 Ags       :     2.521670  s :     2.521670
      pz      :     2.065305  p :     6.154934
      px      :     2.019440
      py      :     2.070189
      dz2     :     1.964966  d :     9.883830
      dxz     :     1.994221
      dyz     :     1.987853
      dx2y2   :     1.988848
      dxy     :     1.947942
      f0      :     0.000185  f :     0.001692
      f+1     :     0.000119
      f-1     :     0.000390
      f+2     :     0.000172
      f-2     :     0.000194
      f+3     :     0.000380
      f-3     :     0.000253
      g0      :     0.000002  g :     0.000017
      g+1     :     0.000001
      g-1     :     0.000003
      g+2     :     0.000002
      g-2     :     0.000002
      g+3     :     0.000001
      g-3     :     0.000001
      g+4     :     0.000003
      g-4     :     0.000003
  1 Ags       :     2.521603  s :     2.521603
      pz      :     2.065351  p :     6.154959
      px      :     2.057478
      py      :     2.032130
      dz2     :     1.964964  d :     9.883834
      dxz     :     1.989451
      dyz     :     1.992630
      dx2y2   :     1.958180
      dxy     :     1.978609
      f0      :     0.000185  f :     0.001692
      f+1     :     0.000322
      f-1     :     0.000186
      f+2     :     0.000188
      f-2     :     0.000177
      f+3     :     0.000380
      f-3     :     0.000253
      g0      :     0.000002  g :     0.000017
      g+1     :     0.000002
      g-1     :     0.000001
      g+2     :     0.000002
      g-2     :     0.000002
      g+3     :     0.000001
      g-3     :     0.000001
      g+4     :     0.000003
      g-4     :     0.000003
  2 Ags       :     2.521609  s :     2.521609
      pz      :     2.065351  p :     6.154961
      px      :     2.057480
      py      :     2.032130
      dz2     :     1.964964  d :     9.883834
      dxz     :     1.989451
      dyz     :     1.992630
      dx2y2   :     1.958180
      dxy     :     1.978609
      f0      :     0.000185  f :     0.001692
      f+1     :     0.000322
      f-1     :     0.000186
      f+2     :     0.000188
      f-2     :     0.000177
      f+3     :     0.000380
      f-3     :     0.000253
      g0      :     0.000002  g :     0.000017
      g+1     :     0.000002
      g-1     :     0.000001
      g+2     :     0.000002
      g-2     :     0.000002
      g+3     :     0.000001
      g-3     :     0.000001
      g+4     :     0.000003
      g-4     :     0.000003
  3 Ags       :     2.552618  s :     2.552618
      pz      :     2.072467  p :     6.104917
      px      :     2.016224
      py      :     2.016226
      dz2     :     1.987491  d :     9.868615
      dxz     :     1.950378
      dyz     :     1.950404
      dx2y2   :     1.990172
      dxy     :     1.990171
      f0      :     0.000238  f :     0.001416
      f+1     :     0.000317
      f-1     :     0.000317
      f+2     :     0.000229
      f-2     :     0.000229
      f+3     :     0.000039
      f-3     :     0.000048
      g0      :     0.000002  g :     0.000014
      g+1     :     0.000003
      g-1     :     0.000003
      g+2     :     0.000003
      g-2     :     0.000003
      g+3     :     0.000001
      g-3     :     0.000001
      g+4     :     0.000000
      g-4     :     0.000000
  4 N s       :     3.487997  s :     3.487997
      pz      :     1.530757  p :     3.861913
      px      :     1.165625
      py      :     1.165530
      dz2     :    -0.009525  d :    -0.006284
      dxz     :    -0.001201
      dyz     :    -0.001212
      dx2y2   :     0.002830
      dxy     :     0.002825
      f0      :     0.000281  f :     0.000643
      f+1     :     0.000031
      f-1     :     0.000031
      f+2     :     0.000052
      f-2     :     0.000052
      f+3     :     0.000000
      f-3     :     0.000196
  5 H s       :     0.731956  s :     0.731956
      pz      :     0.031878  p :     0.078424
      px      :     0.024728
      py      :     0.021818
      dz2     :     0.000660  d :     0.003650
      dxz     :     0.000859
      dyz     :     0.000358
      dx2y2   :     0.000979
      dxy     :     0.000794
  6 H s       :     0.731812  s :     0.731812
      pz      :     0.031707  p :     0.078262
      px      :     0.020377
      py      :     0.026178
      dz2     :     0.000661  d :     0.003650
      dxz     :     0.000108
      dyz     :     0.001108
      dx2y2   :     0.000703
      dxy     :     0.001070
  7 H s       :     0.731957  s :     0.731957
      pz      :     0.031877  p :     0.078424
      px      :     0.024728
      py      :     0.021818
      dz2     :     0.000660  d :     0.003650
      dxz     :     0.000859
      dyz     :     0.000358
      dx2y2   :     0.000979
      dxy     :     0.000794


                     *******************************
                     * LOEWDIN POPULATION ANALYSIS *
                     *******************************

----------------------
LOEWDIN ATOMIC CHARGES
----------------------
   0 Ag:    0.475410
   1 Ag:    0.475400
   2 Ag:    0.475400
   3 Ag:    0.466678
   4 N :    0.420360
   5 H :   -0.104417
   6 H :   -0.104412
   7 H :   -0.104417

-------------------------------
LOEWDIN REDUCED ORBITAL CHARGES
-------------------------------
  0 Ags       :     2.355543  s :     2.355543
      pz      :     2.092301  p :     6.257166
      px      :     2.030258
      py      :     2.134607
      dz2     :     1.970964  d :     9.909285
      dxz     :     1.990612
      dyz     :     1.994575
      dx2y2   :     1.990763
      dxy     :     1.962371
      f0      :     0.000239  f :     0.002570
      f+1     :     0.000170
      f-1     :     0.000680
      f+2     :     0.000260
      f-2     :     0.000249
      f+3     :     0.000648
      f-3     :     0.000325
      g0      :     0.000002  g :     0.000025
      g+1     :     0.000001
      g-1     :     0.000004
      g+2     :     0.000003
      g-2     :     0.000003
      g+3     :     0.000002
      g-3     :     0.000001
      g+4     :     0.000003
      g-4     :     0.000005
  1 Ags       :     2.355515  s :     2.355515
      pz      :     2.092322  p :     6.257187
      px      :     2.108516
      py      :     2.056348
      dz2     :     1.970964  d :     9.909303
      dxz     :     1.993592
      dyz     :     1.991603
      dx2y2   :     1.969482
      dxy     :     1.983662
      f0      :     0.000239  f :     0.002570
      f+1     :     0.000553
      f-1     :     0.000297
      f+2     :     0.000252
      f-2     :     0.000257
      f+3     :     0.000648
      f-3     :     0.000325
      g0      :     0.000002  g :     0.000025
      g+1     :     0.000004
      g-1     :     0.000002
      g+2     :     0.000003
      g-2     :     0.000003
      g+3     :     0.000002
      g-3     :     0.000001
      g+4     :     0.000004
      g-4     :     0.000004
  2 Ags       :     2.355515  s :     2.355515
      pz      :     2.092322  p :     6.257187
      px      :     2.108516
      py      :     2.056348
      dz2     :     1.970964  d :     9.909303
      dxz     :     1.993592
      dyz     :     1.991603
      dx2y2   :     1.969482
      dxy     :     1.983662
      f0      :     0.000239  f :     0.002570
      f+1     :     0.000553
      f-1     :     0.000297
      f+2     :     0.000252
      f-2     :     0.000257
      f+3     :     0.000648
      f-3     :     0.000325
      g0      :     0.000002  g :     0.000025
      g+1     :     0.000004
      g-1     :     0.000002
      g+2     :     0.000003
      g-2     :     0.000003
      g+3     :     0.000002
      g-3     :     0.000001
      g+4     :     0.000004
      g-4     :     0.000004
  3 Ags       :     2.427099  s :     2.427099
      pz      :     2.148407  p :     6.201120
      px      :     2.026357
      py      :     2.026355
      dz2     :     1.992470  d :     9.902909
      dxz     :     1.963210
      dyz     :     1.963229
      dx2y2   :     1.992000
      dxy     :     1.992000
      f0      :     0.000321  f :     0.002174
      f+1     :     0.000555
      f-1     :     0.000554
      f+2     :     0.000315
      f-2     :     0.000315
      f+3     :     0.000055
      f-3     :     0.000059
      g0      :     0.000002  g :     0.000021
      g+1     :     0.000004
      g-1     :     0.000004
      g+2     :     0.000004
      g-2     :     0.000004
      g+3     :     0.000001
      g-3     :     0.000001
      g+4     :     0.000000
      g-4     :     0.000000
  4 N s       :     2.916784  s :     2.916784
      pz      :     1.281711  p :     3.489104
      px      :     1.103700
      py      :     1.103692
      dz2     :     0.036427  d :     0.165060
      dxz     :     0.029520
      dyz     :     0.029524
      dx2y2   :     0.034796
      dxy     :     0.034794
      f0      :     0.000756  f :     0.008692
      f+1     :     0.000026
      f-1     :     0.000026
      f+2     :     0.002840
      f-2     :     0.002839
      f+3     :     0.000000
      f-3     :     0.002205
  5 H s       :     0.649365  s :     0.649365
      pz      :     0.153894  p :     0.399561
      px      :     0.138458
      py      :     0.107209
      dz2     :     0.008932  d :     0.055492
      dxz     :     0.014509
      dyz     :     0.006423
      dx2y2   :     0.013401
      dxy     :     0.012227
  6 H s       :     0.649366  s :     0.649366
      pz      :     0.153892  p :     0.399555
      px      :     0.091581
      py      :     0.154083
      dz2     :     0.008932  d :     0.055491
      dxz     :     0.002380
      dyz     :     0.018551
      dx2y2   :     0.011639
      dxy     :     0.013988
  7 H s       :     0.649365  s :     0.649365
      pz      :     0.153894  p :     0.399561
      px      :     0.138458
      py      :     0.107209
      dz2     :     0.008932  d :     0.055492
      dxz     :     0.014509
      dyz     :     0.006423
      dx2y2   :     0.013401
      dxy     :     0.012227


                      *****************************
                      * MAYER POPULATION ANALYSIS *
                      *****************************

  NA   - Mulliken gross atomic population
  ZA   - Total nuclear charge
  QA   - Mulliken gross atomic charge
  VA   - Mayer's total valence
  BVA  - Mayer's bonded valence
  FA   - Mayer's free valence

  ATOM       NA         ZA         QA         VA         BVA        FA
  0 Ag    18.5621    19.0000     0.4379     1.2413     1.2413    -0.0000
  1 Ag    18.5621    19.0000     0.4379     1.2414     1.2414    -0.0000
  2 Ag    18.5621    19.0000     0.4379     1.2414     1.2414     0.0000
  3 Ag    18.5276    19.0000     0.4724     1.1937     1.1937     0.0000
  4 N      7.3443     7.0000    -0.3443     3.2391     3.2391     0.0000
  5 H      0.8140     1.0000     0.1860     1.0493     1.0493     0.0000
  6 H      0.8137     1.0000     0.1863     1.0487     1.0487     0.0000
  7 H      0.8140     1.0000     0.1860     1.0493     1.0493    -0.0000

  Mayer bond orders larger than 0.100000
B(  0-Ag,  1-Ag) :   0.3979 B(  0-Ag,  2-Ag) :   0.3979 B(  0-Ag,  3-Ag) :   0.3834 
B(  1-Ag,  2-Ag) :   0.3978 B(  1-Ag,  3-Ag) :   0.3834 B(  2-Ag,  3-Ag) :   0.3834 
B(  4-N ,  5-H ) :   1.0072 B(  4-N ,  6-H ) :   1.0068 B(  4-N ,  7-H ) :   1.0072 


-------
TIMINGS
-------

Total SCF time: 0 days 0 hours 0 min 4 sec 

Total time                  ....       4.897 sec
Sum of individual times     ....       4.714 sec  ( 96.3%)

Fock matrix formation       ....       2.674 sec  ( 54.6%)
  Split-RI-J                ....       1.338 sec  ( 50.0% of F)
  XC integration            ....       1.262 sec  ( 47.2% of F)
    Basis function eval.    ....       0.122 sec  (  9.7% of XC)
    Density eval.           ....       0.227 sec  ( 18.0% of XC)
    XC-Functional eval.     ....       0.054 sec  (  4.3% of XC)
    XC-Potential eval.      ....       0.393 sec  ( 31.1% of XC)
Diagonalization             ....       0.184 sec  (  3.8%)
Density matrix formation    ....       0.019 sec  (  0.4%)
Population analysis         ....       0.015 sec  (  0.3%)
Initial guess               ....       1.284 sec  ( 26.2%)
Orbital Transformation      ....       0.000 sec  (  0.0%)
Orbital Orthonormalization  ....       0.000 sec  (  0.0%)
DIIS solution               ....       0.098 sec  (  2.0%)
Grid generation             ....       0.440 sec  (  9.0%)


-------------------------------------------------------------------------------
                          DFT DISPERSION CORRECTION                            
                                                                               
                              DFTD3 V3.1  Rev 1                                
                          USING Becke-Johnson damping                          
-------------------------------------------------------------------------------
The TPSS functional is recognized
Active option DFTDOPT                   ...         4   

molecular C6(AA) [au] = 5559.125164 


            DFT-D V3
 parameters
 s6 scaling factor         :     1.0000 
 a1 scaling factor         :     0.4535 
 s8 scaling factor         :     1.9435 
 a2 scaling factor         :     4.4752 
 ad hoc parameters k1-k3   :    16.0000     1.3333    -4.0000 

 Edisp/kcal,au: -10.942579609312  -0.017438108737 
 E6   /kcal   :  -3.808271058 
 E8   /kcal   :  -7.134308551 
 % E8         :  65.197684692 

-------------------------   ----------------
Dispersion correction           -0.017438109
-------------------------   ----------------


-------------------------   --------------------
FINAL SINGLE POINT ENERGY      -643.834163762304
-------------------------   --------------------


                            ***************************************
                            *     ORCA property calculations      *
                            ***************************************

                                    ---------------------
                                    Active property flags
                                    ---------------------
   (+) Dipole Moment


------------------------------------------------------------------------------
                       ORCA ELECTRIC PROPERTIES CALCULATION
------------------------------------------------------------------------------

Dipole Moment Calculation                       ... on
Quadrupole Moment Calculation                   ... off
Polarizability Calculation                      ... off
GBWName                                         ... Ag04C2_NH3_F.gbw
Electron density file                           ... Ag04C2_NH3_F.scfp
The origin for moment calculation is the CENTER OF MASS  = ( 0.000000,  0.000000  0.083833)

-------------
DIPOLE MOMENT
-------------
                                X             Y             Z
Electronic contribution:      0.00000       0.00006      41.66773
Nuclear contribution   :      0.00000       0.00000     -43.35494
                        -----------------------------------------
Total Dipole Moment    :      0.00000       0.00006      -1.68721
                        -----------------------------------------
Magnitude (a.u.)       :      1.68721
Magnitude (Debye)      :      4.28854



--------------------
Rotational spectrum 
--------------------
 
Rotational constants in cm-1:     0.020453     0.016499     0.016499 
Rotational constants in MHz :   613.168216   494.640125   494.640113 

 Dipole components along the rotational axes: 
x,y,z [a.u.] :    -1.687209     0.000057     0.000000 
x,y,z [Debye]:    -4.288544     0.000145     0.000000 

 

Timings for individual modules:

Sum of individual times         ...        7.083 sec (=   0.118 min)
GTO integral calculation        ...        1.861 sec (=   0.031 min)  26.3 %
SCF iterations                  ...        5.222 sec (=   0.087 min)  73.7 %
                             ****ORCA TERMINATED NORMALLY****
TOTAL RUN TIME: 0 days 0 hours 0 minutes 7 seconds 596 msec
