
                                 *****************
                                 * O   R   C   A *
                                 *****************

           --- An Ab Initio, DFT and Semiempirical electronic structure package ---

                  #######################################################
                  #                        -***-                        #
                  #          Department of theory and spectroscopy      #
                  #               Directorship: Frank Neese             #
                  #        Max Planck Institute fuer Kohlenforschung    #
                  #                Kaiser Wilhelm Platz 1               #
                  #                 D-45470 Muelheim/Ruhr               #
                  #                      Germany                        #
                  #                                                     #
                  #                  All rights reserved                #
                  #                        -***-                        #
                  #######################################################


                         Program Version 4.2.0 -  RELEASE  -


 With contributions from (in alphabetic order):
   Daniel Aravena         : Magnetic Suceptibility
   Michael Atanasov       : Ab Initio Ligand Field Theory (pilot matlab implementation)
   Alexander A. Auer      : GIAO ZORA, VPT2
   Ute Becker             : Parallelization
   Giovanni Bistoni       : ED, misc. LED, open-shell LED, HFLED
   Martin Brehm           : Molecular dynamics
   Dmytro Bykov           : SCF Hessian
   Vijay G. Chilkuri      : MRCI spin determinant printing, contributions to CSF-ICE
   Dipayan Datta          : RHF DLPNO-CCSD density
   Achintya Kumar Dutta   : EOM-CC, STEOM-CC
   Dmitry Ganyushin       : Spin-Orbit,Spin-Spin,Magnetic field MRCI
   Miquel Garcia          : C-PCM Hessian, Gaussian charge scheme
   Yang Guo               : DLPNO-NEVPT2, CIM, IAO-localization
   Andreas Hansen         : Spin unrestricted coupled pair/coupled cluster methods
   Benjamin Helmich-Paris : CASSCF linear response (MC-RPA)
   Lee Huntington         : MR-EOM, pCC
   Robert Izsak           : Overlap fitted RIJCOSX, COSX-SCS-MP3, EOM
   Christian Kollmar      : KDIIS, OOCD, Brueckner-CCSD(T), CCSD density
   Simone Kossmann        : Meta GGA functionals, TD-DFT gradient, OOMP2, MP2 Hessian
   Martin Krupicka        : AUTO-CI
   Lucas Lang             : DCDCAS
   Dagmar Lenk            : GEPOL surface, SMD
   Dimitrios Liakos       : Extrapolation schemes; Compound Job, initial MDCI parallelization
   Dimitrios Manganas     : Further ROCIS development; embedding schemes
   Dimitrios Pantazis     : SARC Basis sets
   Taras Petrenko         : DFT Hessian,TD-DFT gradient, ASA, ECA, R-Raman, ABS, FL, XAS/XES, NRVS
   Peter Pinski           : DLPNO-MP2, DLPNO-MP2 Gradient
   Christoph Reimann      : Effective Core Potentials
   Marius Retegan         : Local ZFS, SOC
   Christoph Riplinger    : Optimizer, TS searches, QM/MM, DLPNO-CCSD(T), (RO)-DLPNO pert. Triples
   Tobias Risthaus        : Range-separated hybrids, TD-DFT gradient, RPA, STAB
   Michael Roemelt        : Original ROCIS implementation
   Masaaki Saitow         : Open-shell DLPNO-CCSD energy and density
   Barbara Sandhoefer     : DKH picture change effects
   Avijit Sen             : IP-ROCIS
   Kantharuban Sivalingam : CASSCF convergence, NEVPT2, FIC-MRCI
   Bernardo de Souza      : ESD, SOC TD-DFT
   Georgi Stoychev        : AutoAux, RI-MP2 NMR
   Willem Van den Heuvel  : Paramagnetic NMR
   Boris Wezisla          : Elementary symmetry handling
   Frank Wennmohs         : Technical directorship


 We gratefully acknowledge several colleagues who have allowed us to
 interface, adapt or use parts of their codes:
   Stefan Grimme, W. Hujo, H. Kruse,             : VdW corrections, initial TS optimization,
                  C. Bannwarth                     DFT functionals, gCP, sTDA/sTD-DF
   Ed Valeev, F. Pavosevic, A. Kumar             : LibInt (2-el integral package), F12 methods
   Garnet Chan, S. Sharma, J. Yang, R. Olivares  : DMRG
   Ulf Ekstrom                                   : XCFun DFT Library
   Mihaly Kallay                                 : mrcc  (arbitrary order and MRCC methods)
   Andreas Klamt, Michael Diedenhofen            : otool_cosmo (COSMO solvation model)
   Jiri Pittner, Ondrej Demel                    : Mk-CCSD
   Frank Weinhold                                : gennbo (NPA and NBO analysis)
   Christopher J. Cramer and Donald G. Truhlar   : smd solvation model
   Lars Goerigk                                  : TD-DFT with DH, B97 family of functionals
   V. Asgeirsson, H. Jonsson                     : NEB implementation
   FAccTs GmbH                                   : IRC, NEB, NEB-TS, Multilevel, MM, QM/MM, CI optimization
   S Lehtola, MJT Oliveira, MAL Marques          : LibXC Library


 Your calculation uses the libint2 library for the computation of 2-el integrals
 For citations please refer to: http://libint.valeyev.net

 Your ORCA version has been built with support for libXC version: 4.2.3
 For citations please refer to: https://tddft.org/programs/libxc/

 This ORCA versions uses:
   CBLAS   interface :  Fast vector & matrix operations
   LAPACKE interface :  Fast linear algebra routines
   SCALAPACK package :  Parallel linear algebra routines


Your calculation utilizes the atom-pairwise dispersion correction
with the Becke-Johnson damping scheme (D3BJ)
Cite in your paper:
S.Grimme, S.Ehrlich, L.Goerigk, J Comput Chem, (2011), 32, 1456–1465 
S.Grimme, J.Antony, S.Ehrlich and H.Krieg, J.Chem.Phys., 132, (2010), 154104 
   

----- Orbital basis set information -----
Your calculation utilizes the basis: def2-TZVPPD
   F. Weigend and R. Ahlrichs, Phys. Chem. Chem. Phys. 7, 3297 (2005).
   D. Rappoport and F. Furche, J. Chem. Phys. 133 134105 (2010).

----- AuxJ basis set information -----
Your calculation utilizes the auxiliary basis: def2/J
   F. Weigend, Phys. Chem. Chem. Phys. 8, 1057 (2006).

cite the ECPs for Ag [Def2-ECP] as follows:
Ce-Yb(ecp-28): M. Dolg, H. Stoll, H.Preuss, J. Chem. Phys., 1989, 90, 1730-1734.
Y-Cd(ecp-28), Hf-Hg(ecp-46): D. Andrae,U. Haeussermann, M. Dolg, H. Stoll, H. Preuss, Theor. Chim. Acta, 1990, 77, 123-141.
In-Sb(ecp-28), Tl-Bi(ecp-46): B. Metz, H. Stoll, M. Dolg, J. Chem. Phys., 2000, 113, 2563-2569.
Te-Xe(ecp-28), Po-Rn(ecp-46): K. A. Peterson, D. Figgen, E. Goll, H. Stoll, M. Dolg, J. Chem. Phys., 2003, 119, 11113-11123.
Rb(ecp-28), Cs(ecp-46): T. Leininger, A. Nicklass, W. Kuechle, H. Stoll, M. Dolg, A. Bergner, Chem. Phys. Lett., 1996, 255, 274-280.
Sr(ecp-28), Ba(ecp-46): M. Kaupp, P. V. Schleyer, H. Stoll and H. Preuss, J. Chem. Phys., 1991, 94, 1360-1366.
La(ecp-46): M. Dolg, H. Stoll, A. Savin, H. Preuss, Theor. Chim. Acta, 1989, 75, 173-194.
Lu(ecp-28): X. Cao, M. Dolg, J. Chem. Phys., 2001, 115, 7348-7355.

ECP parameters for Ag [Def2-ECP] have been obtained from:
TURBOMOLE (7.0.2)

================================================================================
                                        WARNINGS
                       Please study these warnings very carefully!
================================================================================


WARNING: your system is open-shell and RHF/RKS was chosen
  ===> : WILL SWITCH to UHF/UKS


INFO   : the flag for use of LIBINT has been found!

================================================================================
                                       INPUT FILE
================================================================================
NAME = Ag04C2_H_F.in
|  1> #
|  2> # Ag04C2_H_F TPSS-D3BJ/Def2-TZVPPD
|  3> #
|  4> ! tpss d3bj def2-tzvppd def2/j grid4 nofinalgrid
|  5> 
|  6> *xyz 2 2
|  7> Ag       0.000000    1.604405   -0.611776 
|  8> Ag       1.389456   -0.802203   -0.611776 
|  9> Ag      -1.389456   -0.802203   -0.611776 
| 10> Ag       0.000000    0.000000    1.871824 
| 11> H        0.000000    0.000000   -1.715373 
| 12> *
| 13> 
| 14> %maxcore 5000
| 15> 
| 16> %pal
| 17> nprocs = 24
| 18> end
| 19> 
| 20> 
| 21>                          ****END OF INPUT****
================================================================================

                       ****************************
                       * Single Point Calculation *
                       ****************************

---------------------------------
CARTESIAN COORDINATES (ANGSTROEM)
---------------------------------
  Ag     0.000000    1.604405   -0.611776
  Ag     1.389456   -0.802203   -0.611776
  Ag    -1.389456   -0.802203   -0.611776
  Ag     0.000000    0.000000    1.871824
  H      0.000000    0.000000   -1.715373

----------------------------
CARTESIAN COORDINATES (A.U.)
----------------------------
  NO LB      ZA    FRAG     MASS         X           Y           Z
   0 Ag   19.0000*   0   107.870    0.000000    3.031886   -1.156089
   1 Ag   19.0000*   0   107.870    2.625691   -1.515944   -1.156089
   2 Ag   19.0000*   0   107.870   -2.625691   -1.515944   -1.156089
   3 Ag   19.0000*   0   107.870    0.000000    0.000000    3.537235
   4 H     1.0000    0     1.008    0.000000    0.000000   -3.241585
* core charge reduced due to ECP

--------------------------------
INTERNAL COORDINATES (ANGSTROEM)
--------------------------------
 Ag     0   0   0     0.000000000000     0.00000000     0.00000000
 Ag     1   0   0     2.778911664951     0.00000000     0.00000000
 Ag     1   2   0     2.778911664951    60.00000798     0.00000000
 Ag     1   2   3     2.956752333900    61.97049292    72.09954764
 H      1   2   3     1.947316549109    44.47770393   306.01333306

---------------------------
INTERNAL COORDINATES (A.U.)
---------------------------
 Ag     0   0   0     0.000000000000     0.00000000     0.00000000
 Ag     1   0   0     5.251381997116     0.00000000     0.00000000
 Ag     1   2   0     5.251381997116    60.00000798     0.00000000
 Ag     1   2   3     5.587452156904    61.97049292    72.09954764
 H      1   2   3     3.679894973869    44.47770393   306.01333306

---------------------
BASIS SET INFORMATION
---------------------
There are 2 groups of distinct atoms

 Group   1 Type Ag  : 7s7p6d2f1g contracted to 6s4p3d2f1g pattern {211111/4111/411/11/1}
 Group   2 Type H   : 5s3p1d contracted to 3s3p1d pattern {311/111/1}

Atom   0Ag   basis set group =>   1
Atom   1Ag   basis set group =>   1
Atom   2Ag   basis set group =>   1
Atom   3Ag   basis set group =>   1
Atom   4H    basis set group =>   2
---------------------------------
AUXILIARY/J BASIS SET INFORMATION
---------------------------------
There are 2 groups of distinct atoms

 Group   1 Type Ag  : 11s5p5d3f3g contracted to 8s5p5d2f3g pattern {41111111/11111/11111/21/111}
 Group   2 Type H   : 5s2p1d contracted to 3s1p1d pattern {311/2/1}

Atom   0Ag   basis set group =>   1
Atom   1Ag   basis set group =>   1
Atom   2Ag   basis set group =>   1
Atom   3Ag   basis set group =>   1
Atom   4H    basis set group =>   2
-------------------------
ECP PARAMETER INFORMATION
-------------------------

 Group 1, Type Ag ECP Def2-ECP (replacing 28 core electrons, lmax=3)

Atom   0Ag   ECP group =>   1
Atom   1Ag   ECP group =>   1
Atom   2Ag   ECP group =>   1
Atom   3Ag   ECP group =>   1



           ************************************************************
           *        Program running with 24 parallel MPI-processes    *
           *              working on a common directory               *
           ************************************************************
------------------------------------------------------------------------------
                           ORCA GTO INTEGRAL CALCULATION
                           -- RI-GTO INTEGRALS CHOSEN --
------------------------------------------------------------------------------

                         BASIS SET STATISTICS AND STARTUP INFO

Gaussian basis set:
 # of primitive gaussian shells          ...  101
 # of primitive gaussian functions       ...  343
 # of contracted shells                  ...   71
 # of contracted basis functions         ...  241
 Highest angular momentum                ...    4
 Maximum contraction depth               ...    4
Auxiliary gaussian basis set:
 # of primitive gaussian shells          ...  116
 # of primitive gaussian functions       ...  412
 # of contracted shells                  ...   97
 # of contracted aux-basis functions     ...  367
 Highest angular momentum                ...    4
 Maximum contraction depth               ...    4
Ratio of auxiliary to basis functions    ...  1.52
Integral package used                  ... LIBINT
 One Electron integrals                  
   ECP integrals                         ... done
 Ordering auxiliary basis shells         ... done
 Integral threshhold             Thresh  ...  1.000e-10
 Primitive cut-off               TCut    ...  1.000e-11
 Pre-screening matrix                    ... done
 Shell pair data                         ... 
 Ordering of the shell pairs             ... done (   0.000 sec) 2443 of 2556 pairs
 Determination of significant pairs      ... done (   0.000 sec)
 Creation of shell pair data             ... done (   0.000 sec)
 Storage of shell pair data              ... done (   0.005 sec)
 Shell pair data done in (   0.006 sec)
 Computing two index integrals           ... done
 Cholesky decomposition of the V-matrix  ... done


Timings:
 Total evaluation time                   ...   1.034 sec (  0.017 min)
 One electron matrix time                ...   0.790 sec (  0.013 min) = 76.4%
 Schwartz matrix evaluation time         ...   0.205 sec (  0.003 min) = 19.9%
 Two index repulsion integral time       ...   0.002 sec (  0.000 min) =  0.2%
 Cholesky decomposition of V             ...   0.004 sec (  0.000 min) =  0.4%
 Three index repulsion integral time     ...   0.000 sec (  0.000 min) =  0.0%



           ************************************************************
           *        Program running with 24 parallel MPI-processes    *
           *              working on a common directory               *
           ************************************************************
-------------------------------------------------------------------------------
                                 ORCA SCF
-------------------------------------------------------------------------------

------------
SCF SETTINGS
------------
Hamiltonian:
 Density Functional     Method          .... DFT(GTOs)
 Exchange Functional    Exchange        .... TPSS
 Correlation Functional Correlation     .... TPSS
 LDA part of GGA corr.  LDAOpt          .... PW91-LDA
 Gradients option       PostSCFGGA      .... off
   Density functional embedding theory  .... OFF
   NL short-range parameter             ....  5.000000
 RI-approximation to the Coulomb term is turned on
   Number of auxiliary basis functions  .... 367


General Settings:
 Integral files         IntName         .... Ag04C2_H_F
 Hartree-Fock type      HFTyp           .... UHF
 Total Charge           Charge          ....    2
 Multiplicity           Mult            ....    2
 Number of Electrons    NEL             ....   75
 Basis Dimension        Dim             ....  241
 Nuclear Repulsion      ENuc            ....    418.3509819036 Eh

Convergence Acceleration:
 DIIS                   CNVDIIS         .... on
   Start iteration      DIISMaxIt       ....    12
   Startup error        DIISStart       ....  0.200000
   # of expansion vecs  DIISMaxEq       ....     5
   Bias factor          DIISBfac        ....   1.050
   Max. coefficient     DIISMaxC        ....  10.000
 Newton-Raphson         CNVNR           .... off
 SOSCF                  CNVSOSCF        .... off
 Level Shifting         CNVShift        .... on
   Level shift para.    LevelShift      ....    0.2500
   Turn off err/grad.   ShiftErr        ....    0.0010
 Zerner damping         CNVZerner       .... off
 Static damping         CNVDamp         .... on
   Fraction old density DampFac         ....    0.7000
   Max. Damping (<1)    DampMax         ....    0.9800
   Min. Damping (>=0)   DampMin         ....    0.0000
   Turn off err/grad.   DampErr         ....    0.1000
 Fernandez-Rico         CNVRico         .... off

SCF Procedure:
 Maximum # iterations   MaxIter         ....   125
 SCF integral mode      SCFMode         .... Direct
   Integral package                     .... LIBINT
 Reset frequency        DirectResetFreq ....    20
 Integral Threshold     Thresh          ....  1.000e-10 Eh
 Primitive CutOff       TCut            ....  1.000e-11 Eh

Convergence Tolerance:
 Convergence Check Mode ConvCheckMode   .... Total+1el-Energy
 Convergence forced     ConvForced      .... 0
 Energy Change          TolE            ....  1.000e-06 Eh
 1-El. energy change                    ....  1.000e-03 Eh
 DIIS Error             TolErr          ....  1.000e-06


Diagonalization of the overlap matrix:
Smallest eigenvalue                        ... 8.572e-04
Time for diagonalization                   ...    0.011 sec
Threshold for overlap eigenvalues          ... 1.000e-08
Number of eigenvalues below threshold      ... 0
Time for construction of square roots      ...    0.007 sec
Total time needed                          ...    0.019 sec

-------------------
DFT GRID GENERATION
-------------------

General Integration Accuracy     IntAcc      ...  4.670
Radial Grid Type                 RadialGrid  ... Gauss-Chebyshev
Angular Grid (max. acc.)         AngularGrid ... Lebedev-302
Angular grid pruning method      GridPruning ... 3 (G Style)
Weight generation scheme         WeightScheme... Becke
Basis function cutoff            BFCut       ...    1.0000e-10
Integration weight cutoff        WCut        ...    1.0000e-14
Grids for H and He will be reduced by one unit

# of grid points (after initial pruning)     ...  46026 (   0.0 sec)
# of grid points (after weights+screening)   ...  44988 (   0.0 sec)
nearest neighbour list constructed           ...    0.0 sec
Grid point re-assignment to atoms done       ...    0.0 sec
Grid point division into batches done        ...    0.3 sec
Reduced shell lists constructed in    0.3 sec

Total number of grid points                  ...    44988
Total number of batches                      ...      705
Average number of points per batch           ...       63
Average number of grid points per atom       ...     8998
Average number of shells per batch           ...    13.13 (18.49%)
Average number of basis functions per batch  ...    32.35 (13.43%)
Average number of large shells per batch     ...     8.87 (67.57%)
Average number of large basis fcns per batch ...    20.42 (63.11%)
Maximum spatial batch extension              ...  27.25, 26.29, 26.69 au
Average spatial batch extension              ...   0.52,  0.44,  0.49 au

Time for grid setup =    0.385 sec

------------------------------
INITIAL GUESS: MODEL POTENTIAL
------------------------------
Loading Hartree-Fock densities                     ... done
  calling /sw/apps/orca/orca_4_2_0_linux_x86-64_openmpi314/orca Ag04C2_H_F_atom47.inp > Ag04C2_H_F_atom47.out in order to generate an atomic fitting density for atom 0 (Ag with ECP) on-the-fly... 
    atom 0 (Ag), assumed electronic state with S=2: 1s2 2s2 2p6 3s2 3p6 4s2 3d10 4p6 5s2 4d9           ... done
Calculating cut-offs                               ... done
Setting up the integral package                    ... done
Initializing the effective Hamiltonian             ... done
Starting the Coulomb interaction                   ... done (   0.0 sec)
Reading the grid                                   ... done
Mapping shells                                     ... done
Starting the XC term evaluation                    ... done (   0.0 sec)
  promolecular density results
     # of electrons  =    189.001384231
     EX              =   -574.069743395
     EC              =    -10.007360225
     EX+EC           =   -584.077103620
Transforming the Hamiltonian                       ... done (   0.0 sec)
Diagonalizing the Hamiltonian                      ... done (   0.0 sec)
Back transforming the eigenvectors                 ... done (   0.0 sec)
Now organizing SCF variables                       ... done
                      ------------------
                      INITIAL GUESS DONE (   1.6 sec)
                      ------------------
--------------
SCF ITERATIONS
--------------
ITER       Energy         Delta-E        Max-DP      RMS-DP      [F,P]     Damp
               ***  Starting incremental Fock matrix formation  ***
  0   -587.4606713106   0.000000000000 0.05691457  0.00082854  0.5150352 0.7000
  1   -587.5884444761  -0.127773165453 0.02573806  0.00041325  0.3369162 0.7000
  2   -587.6297703146  -0.041325838515 0.00875016  0.00016277  0.2239377 0.7000
                               ***Turning on DIIS***
  3   -587.6580237544  -0.028253439792 0.00706900  0.00011933  0.1538509 0.7000
  4   -587.6790921517  -0.021068397292 0.00447530  0.00009020  0.1077206 0.7000
  5   -587.6938854213  -0.014793269603 0.01005196  0.00021234  0.0755477 0.0000
  6   -587.7283229894  -0.034437568108 0.00811991  0.00005158  0.0009406 0.0000
  7   -587.7283539055  -0.000030916064 0.00039680  0.00000849  0.0013833 0.0000
  8   -587.7283655302  -0.000011624767 0.00104138  0.00000936  0.0002257 0.0000
  9   -587.7283673362  -0.000001805936 0.00024756  0.00000287  0.0000956 0.0000
 10   -587.7283675317  -0.000000195578 0.00028861  0.00000162  0.0000553 0.0000
                 **** Energy Check signals convergence ****

               *****************************************************
               *                     SUCCESS                       *
               *           SCF CONVERGED AFTER  11 CYCLES          *
               *****************************************************


----------------
TOTAL SCF ENERGY
----------------

Total Energy       :         -587.72836758 Eh          -15992.90195 eV

Components:
Nuclear Repulsion  :          418.35098190 Eh           11383.90896 eV
Electronic Energy  :        -1006.07934948 Eh          -27376.81091 eV
One Electron Energy:        -1851.41218234 Eh          -50379.48672 eV
Two Electron Energy:          845.33283286 Eh           23002.67582 eV

Virial components:
Potential Energy   :         -812.84339807 Eh          -22118.59335 eV
Kinetic Energy     :          225.11503050 Eh            6125.69140 eV
Virial Ratio       :            3.61079132


DFT components:
N(Alpha)           :       37.999978041377 electrons
N(Beta)            :       36.999975833017 electrons
N(Total)           :       74.999953874394 electrons
E(X)               :      -52.952851420128 Eh       
E(C)               :       -3.297568833262 Eh       
E(XC)              :      -56.250420253389 Eh       
DFET-embed. en.    :        0.000000000000 Eh       

---------------
SCF CONVERGENCE
---------------

  Last Energy change         ...   -4.4350e-08  Tolerance :   1.0000e-06
  Last MAX-Density change    ...    8.8495e-05  Tolerance :   1.0000e-05
  Last RMS-Density change    ...    7.6655e-07  Tolerance :   1.0000e-06
  Last DIIS Error            ...    5.3733e-05  Tolerance :   1.0000e-06

             **** THE GBW FILE WAS UPDATED (Ag04C2_H_F.gbw) ****
             **** DENSITY FILE WAS UPDATED (Ag04C2_H_F.scfp) ****
             **** ENERGY FILE WAS UPDATED (Ag04C2_H_F.en.tmp) ****
----------------------
UHF SPIN CONTAMINATION
----------------------

Warning: in a DFT calculation there is little theoretical justification to 
         calculate <S**2> as in Hartree-Fock theory. We will do it anyways
         but you should keep in mind that the values have only limited relevance

Expectation value of <S**2>     :     0.754351
Ideal value S*(S+1) for S=0.5   :     0.750000
Deviation                       :     0.004351

             **** THE GBW FILE WAS UPDATED (Ag04C2_H_F.gbw) ****
             **** DENSITY FILE WAS UPDATED (Ag04C2_H_F.scfp) ****
----------------
ORBITAL ENERGIES
----------------
                 SPIN UP ORBITALS
  NO   OCC          E(Eh)            E(eV) 
   0   1.0000      -3.985942      -108.4630 
   1   1.0000      -3.985687      -108.4561 
   2   1.0000      -3.985687      -108.4561 
   3   1.0000      -3.952253      -107.5463 
   4   1.0000      -2.612577       -71.0918 
   5   1.0000      -2.610117       -71.0249 
   6   1.0000      -2.610117       -71.0249 
   7   1.0000      -2.607072       -70.9420 
   8   1.0000      -2.607054       -70.9415 
   9   1.0000      -2.607053       -70.9415 
  10   1.0000      -2.606513       -70.9268 
  11   1.0000      -2.606510       -70.9267 
  12   1.0000      -2.606043       -70.9140 
  13   1.0000      -2.576219       -70.1025 
  14   1.0000      -2.573934       -70.0403 
  15   1.0000      -2.573932       -70.0403 
  16   1.0000      -0.776286       -21.1238 
  17   1.0000      -0.706942       -19.2369 
  18   1.0000      -0.689618       -18.7655 
  19   1.0000      -0.689613       -18.7653 
  20   1.0000      -0.675027       -18.3684 
  21   1.0000      -0.675022       -18.3683 
  22   1.0000      -0.674492       -18.3539 
  23   1.0000      -0.661909       -18.0115 
  24   1.0000      -0.661902       -18.0113 
  25   1.0000      -0.654783       -17.8175 
  26   1.0000      -0.654772       -17.8172 
  27   1.0000      -0.651464       -17.7272 
  28   1.0000      -0.650081       -17.6896 
  29   1.0000      -0.650079       -17.6895 
  30   1.0000      -0.649301       -17.6684 
  31   1.0000      -0.636150       -17.3105 
  32   1.0000      -0.629502       -17.1296 
  33   1.0000      -0.629487       -17.1292 
  34   1.0000      -0.624712       -16.9993 
  35   1.0000      -0.624702       -16.9990 
  36   1.0000      -0.622411       -16.9367 
  37   1.0000      -0.523744       -14.2518 
  38   0.0000      -0.471236       -12.8230 
  39   0.0000      -0.471233       -12.8229 
  40   0.0000      -0.409632       -11.1467 
  41   0.0000      -0.351813        -9.5733 
  42   0.0000      -0.338961        -9.2236 
  43   0.0000      -0.338961        -9.2236 
  44   0.0000      -0.330855        -9.0030 
  45   0.0000      -0.330852        -9.0029 
  46   0.0000      -0.224978        -6.1220 
  47   0.0000      -0.213636        -5.8133 
  48   0.0000      -0.213635        -5.8133 
  49   0.0000      -0.212339        -5.7780 
  50   0.0000      -0.202471        -5.5095 
  51   0.0000      -0.201131        -5.4731 
  52   0.0000      -0.201126        -5.4729 
  53   0.0000      -0.163142        -4.4393 
  54   0.0000      -0.131451        -3.5770 
  55   0.0000      -0.120016        -3.2658 
  56   0.0000      -0.118088        -3.2133 
  57   0.0000      -0.118085        -3.2133 
  58   0.0000      -0.109674        -2.9844 
  59   0.0000      -0.109674        -2.9844 
  60   0.0000      -0.092510        -2.5173 
  61   0.0000      -0.092504        -2.5172 
  62   0.0000      -0.085709        -2.3323 
  63   0.0000      -0.047438        -1.2909 
  64   0.0000      -0.047438        -1.2908 
  65   0.0000      -0.030568        -0.8318 
  66   0.0000      -0.027183        -0.7397 
  67   0.0000      -0.027175        -0.7395 
  68   0.0000      -0.023554        -0.6409 
  69   0.0000      -0.017048        -0.4639 
  70   0.0000      -0.002028        -0.0552 
  71   0.0000      -0.002019        -0.0549 
  72   0.0000       0.065530         1.7832 
  73   0.0000       0.065535         1.7833 
  74   0.0000       0.122971         3.3462 
  75   0.0000       0.122973         3.3463 
  76   0.0000       0.128673         3.5014 
  77   0.0000       0.166040         4.5182 
  78   0.0000       0.179893         4.8951 
  79   0.0000       0.216052         5.8791 
  80   0.0000       0.227370         6.1871 
  81   0.0000       0.227376         6.1872 
  82   0.0000       0.240040         6.5318 
  83   0.0000       0.240040         6.5318 
  84   0.0000       0.265367         7.2210 
  85   0.0000       0.265382         7.2214 
  86   0.0000       0.283362         7.7107 
  87   0.0000       0.309605         8.4248 
  88   0.0000       0.309632         8.4255 
  89   0.0000       0.344715         9.3802 
  90   0.0000       0.344719         9.3803 
  91   0.0000       0.357160         9.7188 
  92   0.0000       0.360496         9.8096 
  93   0.0000       0.591149        16.0860 
  94   0.0000       0.591218        16.0879 
  95   0.0000       0.684877        18.6364 
  96   0.0000       1.075311        29.2607 
  97   0.0000       1.075330        29.2612 
  98   0.0000       1.121980        30.5306 
  99   0.0000       1.125799        30.6346 
 100   0.0000       1.133057        30.8320 
 101   0.0000       1.133060        30.8321 
 102   0.0000       1.138787        30.9880 
 103   0.0000       1.139015        30.9942 
 104   0.0000       1.139043        30.9949 
 105   0.0000       1.149480        31.2789 
 106   0.0000       1.149497        31.2794 
 107   0.0000       1.156054        31.4578 
 108   0.0000       1.168571        31.7984 
 109   0.0000       1.168600        31.7992 
 110   0.0000       1.175895        31.9977 
 111   0.0000       1.175898        31.9978 
 112   0.0000       1.176698        32.0196 
 113   0.0000       1.181001        32.1367 
 114   0.0000       1.183446        32.2032 
 115   0.0000       1.184715        32.2377 
 116   0.0000       1.184725        32.2380 
 117   0.0000       1.191637        32.4261 
 118   0.0000       1.211026        32.9537 
 119   0.0000       1.211033        32.9539 
 120   0.0000       1.216913        33.1139 
 121   0.0000       1.216917        33.1140 
 122   0.0000       1.227686        33.4070 
 123   0.0000       1.266517        34.4637 
 124   0.0000       1.294965        35.2378 
 125   0.0000       1.294981        35.2382 
 126   0.0000       1.305254        35.5178 
 127   0.0000       1.330048        36.1924 
 128   0.0000       1.330054        36.1926 
 129   0.0000       1.339481        36.4491 
 130   0.0000       1.386559        37.7302 
 131   0.0000       1.386588        37.7310 
 132   0.0000       1.406647        38.2768 
 133   0.0000       1.469005        39.9737 
 134   0.0000       1.486759        40.4568 
 135   0.0000       1.486767        40.4570 
 136   0.0000       1.645027        44.7635 
 137   0.0000       1.645064        44.7645 
 138   0.0000       1.662558        45.2405 
 139   0.0000       1.667728        45.3812 
 140   0.0000       1.671915        45.4951 
 141   0.0000       1.671966        45.4965 
 142   0.0000       1.716814        46.7169 
 143   0.0000       1.717657        46.7398 
 144   0.0000       1.717673        46.7403 
 145   0.0000       1.742997        47.4294 
 146   0.0000       1.743038        47.4305 
 147   0.0000       1.746481        47.5242 
 148   0.0000       1.750255        47.6269 
 149   0.0000       1.750304        47.6282 
 150   0.0000       1.762316        47.9551 
 151   0.0000       1.762356        47.9561 
 152   0.0000       1.763277        47.9812 
 153   0.0000       1.801672        49.0260 
 154   0.0000       1.843473        50.1635 
 155   0.0000       1.843477        50.1636 
 156   0.0000       2.095713        57.0272 
 157   0.0000       2.311075        62.8875 
 158   0.0000       2.357915        64.1621 
 159   0.0000       2.357934        64.1626 
 160   0.0000       2.768473        75.3340 
 161   0.0000       2.929776        79.7233 
 162   0.0000       2.929838        79.7250 
 163   0.0000       2.967141        80.7400 
 164   0.0000       3.239533        88.1522 
 165   0.0000       3.239784        88.1590 
 166   0.0000       3.818688       103.9118 
 167   0.0000       3.818763       103.9138 
 168   0.0000       3.868130       105.2572 
 169   0.0000       4.322411       117.6188 
 170   0.0000       4.322454       117.6199 
 171   0.0000       4.338452       118.0553 
 172   0.0000       4.344630       118.2234 
 173   0.0000       4.344637       118.2236 
 174   0.0000       4.347800       118.3096 
 175   0.0000       4.365862       118.8011 
 176   0.0000       4.365881       118.8017 
 177   0.0000       4.366582       118.8207 
 178   0.0000       4.366714       118.8243 
 179   0.0000       4.383668       119.2857 
 180   0.0000       4.383699       119.2865 
 181   0.0000       4.384289       119.3026 
 182   0.0000       4.390886       119.4821 
 183   0.0000       4.396984       119.6480 
 184   0.0000       4.397017       119.6489 
 185   0.0000       4.411860       120.0528 
 186   0.0000       4.422221       120.3348 
 187   0.0000       4.422266       120.3360 
 188   0.0000       4.498203       122.4023 
 189   0.0000       4.498254       122.4037 
 190   0.0000       4.507976       122.6683 
 191   0.0000       4.534555       123.3915 
 192   0.0000       4.552156       123.8705 
 193   0.0000       4.552167       123.8708 
 194   0.0000       4.720380       128.4481 
 195   0.0000       4.720540       128.4524 
 196   0.0000       4.753353       129.3453 
 197   0.0000       5.111738       139.0975 
 198   0.0000       5.113331       139.1408 
 199   0.0000       5.113513       139.1458 
 200   0.0000       5.113955       139.1578 
 201   0.0000       5.114544       139.1738 
 202   0.0000       5.114742       139.1792 
 203   0.0000       5.114777       139.1802 
 204   0.0000       5.115981       139.2129 
 205   0.0000       5.116126       139.2169 
 206   0.0000       5.116493       139.2268 
 207   0.0000       5.117333       139.2497 
 208   0.0000       5.117433       139.2524 
 209   0.0000       5.117890       139.2649 
 210   0.0000       5.118224       139.2740 
 211   0.0000       5.118316       139.2765 
 212   0.0000       5.118474       139.2807 
 213   0.0000       5.119437       139.3070 
 214   0.0000       5.119441       139.3071 
 215   0.0000       5.123288       139.4118 
 216   0.0000       5.123331       139.4129 
 217   0.0000       5.125583       139.4742 
 218   0.0000       5.128229       139.5462 
 219   0.0000       5.128336       139.5491 
 220   0.0000       5.137219       139.7908 
 221   0.0000       5.146722       140.0494 
 222   0.0000       5.147454       140.0693 
 223   0.0000       5.148040       140.0853 
 224   0.0000       5.148088       140.0866 
 225   0.0000       5.148899       140.1087 
 226   0.0000       5.149240       140.1180 
 227   0.0000       5.149469       140.1242 
 228   0.0000       5.152269       140.2004 
 229   0.0000       5.153264       140.2274 
 230   0.0000       5.264335       143.2498 
 231   0.0000       5.264393       143.2514 
 232   0.0000       5.299926       144.2183 
 233   0.0000      32.962172       896.9463 
 234   0.0000      33.214678       903.8173 
 235   0.0000      33.361943       907.8246 
 236   0.0000      33.361951       907.8249 
 237   0.0000     110.336028      3002.3960 
 238   0.0000     110.424285      3004.7976 
 239   0.0000     110.456549      3005.6755 
 240   0.0000     110.456553      3005.6756 

                 SPIN DOWN ORBITALS
  NO   OCC          E(Eh)            E(eV) 
   0   1.0000      -3.984016      -108.4106 
   1   1.0000      -3.983760      -108.4036 
   2   1.0000      -3.983760      -108.4036 
   3   1.0000      -3.952532      -107.5539 
   4   1.0000      -2.609921       -71.0196 
   5   1.0000      -2.607746       -70.9604 
   6   1.0000      -2.607745       -70.9604 
   7   1.0000      -2.606093       -70.9154 
   8   1.0000      -2.606090       -70.9153 
   9   1.0000      -2.605526       -70.9000 
  10   1.0000      -2.604453       -70.8708 
  11   1.0000      -2.604038       -70.8595 
  12   1.0000      -2.604035       -70.8594 
  13   1.0000      -2.576215       -70.1024 
  14   1.0000      -2.573972       -70.0413 
  15   1.0000      -2.573970       -70.0413 
  16   1.0000      -0.759029       -20.6542 
  17   1.0000      -0.702943       -19.1281 
  18   1.0000      -0.688798       -18.7432 
  19   1.0000      -0.688793       -18.7430 
  20   1.0000      -0.672157       -18.2903 
  21   1.0000      -0.671606       -18.2753 
  22   1.0000      -0.671601       -18.2752 
  23   1.0000      -0.659283       -17.9400 
  24   1.0000      -0.659276       -17.9398 
  25   1.0000      -0.650960       -17.7135 
  26   1.0000      -0.650957       -17.7134 
  27   1.0000      -0.649966       -17.6865 
  28   1.0000      -0.648636       -17.6503 
  29   1.0000      -0.648627       -17.6500 
  30   1.0000      -0.643338       -17.5061 
  31   1.0000      -0.635124       -17.2826 
  32   1.0000      -0.625605       -17.0236 
  33   1.0000      -0.625590       -17.0232 
  34   1.0000      -0.621615       -16.9150 
  35   1.0000      -0.621605       -16.9147 
  36   1.0000      -0.616572       -16.7778 
  37   0.0000      -0.501958       -13.6590 
  38   0.0000      -0.466623       -12.6975 
  39   0.0000      -0.466620       -12.6974 
  40   0.0000      -0.397026       -10.8036 
  41   0.0000      -0.346429        -9.4268 
  42   0.0000      -0.334561        -9.1039 
  43   0.0000      -0.334560        -9.1039 
  44   0.0000      -0.320846        -8.7307 
  45   0.0000      -0.320844        -8.7306 
  46   0.0000      -0.212671        -5.7871 
  47   0.0000      -0.206125        -5.6089 
  48   0.0000      -0.206123        -5.6089 
  49   0.0000      -0.200503        -5.4560 
  50   0.0000      -0.200384        -5.4527 
  51   0.0000      -0.196458        -5.3459 
  52   0.0000      -0.196453        -5.3458 
  53   0.0000      -0.157182        -4.2771 
  54   0.0000      -0.126623        -3.4456 
  55   0.0000      -0.111093        -3.0230 
  56   0.0000      -0.109422        -2.9775 
  57   0.0000      -0.109419        -2.9775 
  58   0.0000      -0.103209        -2.8085 
  59   0.0000      -0.103205        -2.8084 
  60   0.0000      -0.086715        -2.3596 
  61   0.0000      -0.086712        -2.3596 
  62   0.0000      -0.076843        -2.0910 
  63   0.0000      -0.039396        -1.0720 
  64   0.0000      -0.039394        -1.0720 
  65   0.0000      -0.020239        -0.5507 
  66   0.0000      -0.020198        -0.5496 
  67   0.0000      -0.017244        -0.4692 
  68   0.0000      -0.017240        -0.4691 
  69   0.0000      -0.003965        -0.1079 
  70   0.0000       0.002213         0.0602 
  71   0.0000       0.002220         0.0604 
  72   0.0000       0.074958         2.0397 
  73   0.0000       0.074959         2.0398 
  74   0.0000       0.128705         3.5022 
  75   0.0000       0.128710         3.5024 
  76   0.0000       0.134200         3.6518 
  77   0.0000       0.170406         4.6370 
  78   0.0000       0.189140         5.1468 
  79   0.0000       0.227322         6.1858 
  80   0.0000       0.233745         6.3605 
  81   0.0000       0.233751         6.3607 
  82   0.0000       0.245216         6.6727 
  83   0.0000       0.245219         6.6727 
  84   0.0000       0.268673         7.3110 
  85   0.0000       0.268681         7.3112 
  86   0.0000       0.291169         7.9231 
  87   0.0000       0.315154         8.5758 
  88   0.0000       0.315172         8.5763 
  89   0.0000       0.352331         9.5874 
  90   0.0000       0.352337         9.5876 
  91   0.0000       0.359125         9.7723 
  92   0.0000       0.372132        10.1262 
  93   0.0000       0.607756        16.5379 
  94   0.0000       0.607825        16.5397 
  95   0.0000       0.701390        19.0858 
  96   0.0000       1.076876        29.3033 
  97   0.0000       1.076893        29.3037 
  98   0.0000       1.123962        30.5846 
  99   0.0000       1.128160        30.6988 
 100   0.0000       1.134819        30.8800 
 101   0.0000       1.134823        30.8801 
 102   0.0000       1.140860        31.0444 
 103   0.0000       1.142638        31.0928 
 104   0.0000       1.142669        31.0936 
 105   0.0000       1.151061        31.3220 
 106   0.0000       1.151078        31.3224 
 107   0.0000       1.157314        31.4921 
 108   0.0000       1.170569        31.8528 
 109   0.0000       1.170604        31.8537 
 110   0.0000       1.178176        32.0598 
 111   0.0000       1.178181        32.0599 
 112   0.0000       1.180478        32.1224 
 113   0.0000       1.186181        32.2776 
 114   0.0000       1.188353        32.3367 
 115   0.0000       1.188369        32.3372 
 116   0.0000       1.188553        32.3422 
 117   0.0000       1.194412        32.5016 
 118   0.0000       1.214182        33.0396 
 119   0.0000       1.214193        33.0399 
 120   0.0000       1.219375        33.1809 
 121   0.0000       1.219376        33.1809 
 122   0.0000       1.228676        33.4340 
 123   0.0000       1.270910        34.5832 
 124   0.0000       1.302876        35.4531 
 125   0.0000       1.302891        35.4535 
 126   0.0000       1.308445        35.6046 
 127   0.0000       1.332511        36.2595 
 128   0.0000       1.332516        36.2596 
 129   0.0000       1.345443        36.6114 
 130   0.0000       1.392677        37.8967 
 131   0.0000       1.392704        37.8974 
 132   0.0000       1.412647        38.4401 
 133   0.0000       1.469864        39.9970 
 134   0.0000       1.490007        40.5452 
 135   0.0000       1.490019        40.5455 
 136   0.0000       1.648020        44.8449 
 137   0.0000       1.648059        44.8460 
 138   0.0000       1.666945        45.3599 
 139   0.0000       1.669396        45.4266 
 140   0.0000       1.677118        45.6367 
 141   0.0000       1.677150        45.6376 
 142   0.0000       1.719719        46.7959 
 143   0.0000       1.719729        46.7962 
 144   0.0000       1.723511        46.8991 
 145   0.0000       1.745242        47.4904 
 146   0.0000       1.745286        47.4916 
 147   0.0000       1.750182        47.6249 
 148   0.0000       1.752751        47.6948 
 149   0.0000       1.752802        47.6962 
 150   0.0000       1.763972        48.0001 
 151   0.0000       1.765902        48.0526 
 152   0.0000       1.765940        48.0537 
 153   0.0000       1.807982        49.1977 
 154   0.0000       1.849251        50.3207 
 155   0.0000       1.849256        50.3208 
 156   0.0000       2.101578        57.1868 
 157   0.0000       2.315201        62.9998 
 158   0.0000       2.361573        64.2617 
 159   0.0000       2.361592        64.2622 
 160   0.0000       2.798330        76.1464 
 161   0.0000       2.953128        80.3587 
 162   0.0000       2.953145        80.3592 
 163   0.0000       2.988871        81.3313 
 164   0.0000       3.263189        88.7959 
 165   0.0000       3.263389        88.8013 
 166   0.0000       3.831044       104.2480 
 167   0.0000       3.831132       104.2504 
 168   0.0000       3.871829       105.3578 
 169   0.0000       4.324480       117.6751 
 170   0.0000       4.324523       117.6763 
 171   0.0000       4.339391       118.0808 
 172   0.0000       4.346390       118.2713 
 173   0.0000       4.346398       118.2715 
 174   0.0000       4.349357       118.3520 
 175   0.0000       4.367733       118.8521 
 176   0.0000       4.367750       118.8525 
 177   0.0000       4.368771       118.8803 
 178   0.0000       4.369361       118.8964 
 179   0.0000       4.384973       119.3212 
 180   0.0000       4.385002       119.3220 
 181   0.0000       4.386790       119.3706 
 182   0.0000       4.392934       119.5378 
 183   0.0000       4.398741       119.6958 
 184   0.0000       4.398775       119.6967 
 185   0.0000       4.413688       120.1026 
 186   0.0000       4.425831       120.4330 
 187   0.0000       4.425877       120.4342 
 188   0.0000       4.500387       122.4618 
 189   0.0000       4.500439       122.4632 
 190   0.0000       4.511503       122.7642 
 191   0.0000       4.535141       123.4075 
 192   0.0000       4.554523       123.9349 
 193   0.0000       4.554533       123.9351 
 194   0.0000       4.725299       128.5819 
 195   0.0000       4.725438       128.5857 
 196   0.0000       4.756750       129.4377 
 197   0.0000       5.113793       139.1534 
 198   0.0000       5.114585       139.1749 
 199   0.0000       5.114735       139.1790 
 200   0.0000       5.115391       139.1969 
 201   0.0000       5.115585       139.2022 
 202   0.0000       5.116209       139.2191 
 203   0.0000       5.116557       139.2286 
 204   0.0000       5.117808       139.2626 
 205   0.0000       5.118080       139.2700 
 206   0.0000       5.118221       139.2739 
 207   0.0000       5.118559       139.2831 
 208   0.0000       5.119058       139.2966 
 209   0.0000       5.119220       139.3011 
 210   0.0000       5.119227       139.3012 
 211   0.0000       5.119954       139.3210 
 212   0.0000       5.119958       139.3212 
 213   0.0000       5.121101       139.3522 
 214   0.0000       5.121145       139.3534 
 215   0.0000       5.124411       139.4423 
 216   0.0000       5.124486       139.4444 
 217   0.0000       5.127868       139.5364 
 218   0.0000       5.131136       139.6253 
 219   0.0000       5.131266       139.6288 
 220   0.0000       5.140173       139.8712 
 221   0.0000       5.147332       140.0660 
 222   0.0000       5.147964       140.0832 
 223   0.0000       5.148626       140.1012 
 224   0.0000       5.148640       140.1016 
 225   0.0000       5.149435       140.1232 
 226   0.0000       5.149790       140.1329 
 227   0.0000       5.150011       140.1389 
 228   0.0000       5.152864       140.2165 
 229   0.0000       5.153862       140.2437 
 230   0.0000       5.267569       143.3378 
 231   0.0000       5.267638       143.3397 
 232   0.0000       5.301821       144.2699 
 233   0.0000      32.963204       896.9744 
 234   0.0000      33.215144       903.8300 
 235   0.0000      33.363823       907.8758 
 236   0.0000      33.363831       907.8760 
 237   0.0000     110.336580      3002.4110 
 238   0.0000     110.424500      3004.8034 
 239   0.0000     110.457286      3005.6955 
 240   0.0000     110.457290      3005.6957 

                    ********************************
                    * MULLIKEN POPULATION ANALYSIS *
                    ********************************

--------------------------------------------
MULLIKEN ATOMIC CHARGES AND SPIN POPULATIONS
--------------------------------------------
   0 Ag:    0.434988    0.100285
   1 Ag:    0.434673    0.100310
   2 Ag:    0.434671    0.100310
   3 Ag:    0.410948    0.411082
   4 H :    0.284720    0.288013
Sum of atomic charges         :    2.0000000
Sum of atomic spin populations:    1.0000000

-----------------------------------------------------
MULLIKEN REDUCED ORBITAL CHARGES AND SPIN POPULATIONS
-----------------------------------------------------
CHARGE
  0 Ags       :     2.500650  s :     2.500650
      pz      :     2.095547  p :     6.226293
      px      :     2.017039
      py      :     2.113706
      dz2     :     1.974886  d :     9.836206
      dxz     :     1.995129
      dyz     :     1.939413
      dx2y2   :     1.982566
      dxy     :     1.944212
      f0      :     0.000229  f :     0.001844
      f+1     :     0.000090
      f-1     :     0.000282
      f+2     :     0.000408
      f-2     :     0.000159
      f+3     :     0.000374
      f-3     :     0.000303
      g0      :     0.000002  g :     0.000019
      g+1     :     0.000001
      g-1     :     0.000002
      g+2     :     0.000002
      g-2     :     0.000002
      g+3     :     0.000002
      g-3     :     0.000002
      g+4     :     0.000003
      g-4     :     0.000003
  1 Ags       :     2.500860  s :     2.500860
      pz      :     2.095527  p :     6.226377
      px      :     2.089604
      py      :     2.041246
      dz2     :     1.974895  d :     9.836226
      dxz     :     1.953333
      dyz     :     1.981192
      dx2y2   :     1.953820
      dxy     :     1.972985
      f0      :     0.000229  f :     0.001845
      f+1     :     0.000234
      f-1     :     0.000138
      f+2     :     0.000221
      f-2     :     0.000346
      f+3     :     0.000374
      f-3     :     0.000303
      g0      :     0.000002  g :     0.000019
      g+1     :     0.000002
      g-1     :     0.000001
      g+2     :     0.000002
      g-2     :     0.000002
      g+3     :     0.000002
      g-3     :     0.000003
      g+4     :     0.000003
      g-4     :     0.000003
  2 Ags       :     2.500861  s :     2.500861
      pz      :     2.095527  p :     6.226377
      px      :     2.089605
      py      :     2.041246
      dz2     :     1.974895  d :     9.836226
      dxz     :     1.953333
      dyz     :     1.981192
      dx2y2   :     1.953820
      dxy     :     1.972985
      f0      :     0.000229  f :     0.001845
      f+1     :     0.000234
      f-1     :     0.000138
      f+2     :     0.000221
      f-2     :     0.000346
      f+3     :     0.000374
      f-3     :     0.000303
      g0      :     0.000002  g :     0.000019
      g+1     :     0.000002
      g-1     :     0.000001
      g+2     :     0.000002
      g-2     :     0.000002
      g+3     :     0.000002
      g-3     :     0.000003
      g+4     :     0.000003
      g-4     :     0.000003
  3 Ags       :     2.616711  s :     2.616711
      pz      :     2.070356  p :     6.092928
      px      :     2.011285
      py      :     2.011286
      dz2     :     1.987525  d :     9.878748
      dxz     :     1.953040
      dyz     :     1.953048
      dx2y2   :     1.992567
      dxy     :     1.992568
      f0      :     0.000123  f :     0.000659
      f+1     :     0.000156
      f-1     :     0.000156
      f+2     :     0.000096
      f-2     :     0.000096
      f+3     :     0.000014
      f-3     :     0.000018
      g0      :     0.000001  g :     0.000006
      g+1     :     0.000001
      g-1     :     0.000001
      g+2     :     0.000001
      g-2     :     0.000001
      g+3     :     0.000000
      g-3     :     0.000000
      g+4     :     0.000000
      g-4     :     0.000000
  4 H s       :     0.763677  s :     0.763677
      pz      :    -0.057273  p :    -0.050445
      px      :     0.003411
      py      :     0.003417
      dz2     :     0.000465  d :     0.002049
      dxz     :     0.000385
      dyz     :     0.000386
      dx2y2   :     0.000406
      dxy     :     0.000406

SPIN
  0 Ags       :    -0.004384  s :    -0.004384
      pz      :     0.066288  p :     0.062140
      px      :     0.000197
      py      :    -0.004345
      dz2     :    -0.000543  d :     0.042343
      dxz     :    -0.000371
      dyz     :     0.040302
      dx2y2   :     0.003214
      dxy     :    -0.000257
      f0      :     0.000020  f :     0.000184
      f+1     :     0.000000
      f-1     :     0.000005
      f+2     :     0.000142
      f-2     :    -0.000001
      f+3     :    -0.000003
      f-3     :     0.000021
      g0      :     0.000000  g :     0.000002
      g+1     :     0.000000
      g-1     :    -0.000000
      g+2     :     0.000000
      g-2     :    -0.000000
      g+3     :     0.000000
      g-3     :     0.000001
      g+4     :     0.000000
      g-4     :     0.000000
  1 Ags       :    -0.004371  s :    -0.004371
      pz      :     0.066274  p :     0.062142
      px      :    -0.003198
      py      :    -0.000934
      dz2     :    -0.000540  d :     0.042353
      dxz     :     0.030131
      dyz     :     0.009799
      dx2y2   :     0.000612
      dxy     :     0.002351
      f0      :     0.000020  f :     0.000184
      f+1     :     0.000003
      f-1     :     0.000001
      f+2     :     0.000035
      f-2     :     0.000106
      f+3     :    -0.000003
      f-3     :     0.000021
      g0      :     0.000000  g :     0.000002
      g+1     :    -0.000000
      g-1     :    -0.000000
      g+2     :    -0.000000
      g-2     :     0.000000
      g+3     :     0.000000
      g-3     :     0.000001
      g+4     :     0.000000
      g-4     :     0.000000
  2 Ags       :    -0.004371  s :    -0.004371
      pz      :     0.066274  p :     0.062142
      px      :    -0.003198
      py      :    -0.000934
      dz2     :    -0.000540  d :     0.042353
      dxz     :     0.030131
      dyz     :     0.009799
      dx2y2   :     0.000612
      dxy     :     0.002351
      f0      :     0.000020  f :     0.000184
      f+1     :     0.000003
      f-1     :     0.000001
      f+2     :     0.000035
      f-2     :     0.000106
      f+3     :    -0.000003
      f-3     :     0.000021
      g0      :     0.000000  g :     0.000002
      g+1     :    -0.000000
      g-1     :    -0.000000
      g+2     :    -0.000000
      g-2     :     0.000000
      g+3     :     0.000000
      g-3     :     0.000001
      g+4     :     0.000000
      g-4     :     0.000000
  3 Ags       :     0.398352  s :     0.398352
      pz      :     0.014128  p :     0.017919
      px      :     0.001896
      py      :     0.001896
      dz2     :    -0.000182  d :    -0.005222
      dxz     :    -0.002081
      dyz     :    -0.002079
      dx2y2   :    -0.000440
      dxy     :    -0.000440
      f0      :     0.000016  f :     0.000032
      f+1     :     0.000003
      f-1     :     0.000003
      f+2     :     0.000003
      f-2     :     0.000003
      f+3     :     0.000001
      f-3     :     0.000002
      g0      :     0.000000  g :     0.000000
      g+1     :    -0.000000
      g-1     :    -0.000000
      g+2     :    -0.000000
      g-2     :     0.000000
      g+3     :     0.000000
      g-3     :     0.000000
      g+4     :     0.000000
      g-4     :     0.000000
  4 H s       :     0.295240  s :     0.295240
      pz      :    -0.010492  p :    -0.007245
      px      :     0.001623
      py      :     0.001624
      dz2     :     0.000026  d :     0.000018
      dxz     :    -0.000014
      dyz     :    -0.000014
      dx2y2   :     0.000010
      dxy     :     0.000010


                     *******************************
                     * LOEWDIN POPULATION ANALYSIS *
                     *******************************

-------------------------------------------
LOEWDIN ATOMIC CHARGES AND SPIN POPULATIONS
-------------------------------------------
   0 Ag:    0.555764    0.177475
   1 Ag:    0.555742    0.177475
   2 Ag:    0.555742    0.177475
   3 Ag:    0.490569    0.281860
   4 H :   -0.157817    0.185715

----------------------------------------------------
LOEWDIN REDUCED ORBITAL CHARGES AND SPIN POPULATIONS
----------------------------------------------------
CHARGE
  0 Ags       :     2.261785  s :     2.261785
      pz      :     2.145542  p :     6.317040
      px      :     2.023663
      py      :     2.147835
      dz2     :     1.976911  d :     9.862225
      dxz     :     1.991519
      dyz     :     1.956531
      dx2y2   :     1.985051
      dxy     :     1.952213
      f0      :     0.000355  f :     0.003152
      f+1     :     0.000136
      f-1     :     0.000434
      f+2     :     0.000979
      f-2     :     0.000186
      f+3     :     0.000586
      f-3     :     0.000476
      g0      :     0.000003  g :     0.000033
      g+1     :     0.000001
      g-1     :     0.000003
      g+2     :     0.000004
      g-2     :     0.000003
      g+3     :     0.000002
      g-3     :     0.000008
      g+4     :     0.000004
      g-4     :     0.000004
  1 Ags       :     2.261811  s :     2.261811
      pz      :     2.145531  p :     6.317035
      px      :     2.116794
      py      :     2.054710
      dz2     :     1.976913  d :     9.862227
      dxz     :     1.965274
      dyz     :     1.982766
      dx2y2   :     1.960439
      dxy     :     1.976835
      f0      :     0.000355  f :     0.003153
      f+1     :     0.000360
      f-1     :     0.000211
      f+2     :     0.000384
      f-2     :     0.000781
      f+3     :     0.000586
      f-3     :     0.000476
      g0      :     0.000003  g :     0.000033
      g+1     :     0.000003
      g-1     :     0.000001
      g+2     :     0.000003
      g-2     :     0.000004
      g+3     :     0.000002
      g-3     :     0.000008
      g+4     :     0.000004
      g-4     :     0.000004
  2 Ags       :     2.261811  s :     2.261811
      pz      :     2.145531  p :     6.317035
      px      :     2.116794
      py      :     2.054710
      dz2     :     1.976913  d :     9.862227
      dxz     :     1.965274
      dyz     :     1.982766
      dx2y2   :     1.960439
      dxy     :     1.976835
      f0      :     0.000355  f :     0.003153
      f+1     :     0.000360
      f-1     :     0.000211
      f+2     :     0.000384
      f-2     :     0.000781
      f+3     :     0.000586
      f-3     :     0.000476
      g0      :     0.000003  g :     0.000033
      g+1     :     0.000003
      g-1     :     0.000001
      g+2     :     0.000003
      g-2     :     0.000004
      g+3     :     0.000002
      g-3     :     0.000008
      g+4     :     0.000004
      g-4     :     0.000004
  3 Ags       :     2.446440  s :     2.446440
      pz      :     2.122940  p :     6.158801
      px      :     2.017930
      py      :     2.017930
      dz2     :     1.994507  d :     9.903137
      dxz     :     1.960734
      dyz     :     1.960740
      dx2y2   :     1.993578
      dxy     :     1.993579
      f0      :     0.000181  f :     0.001044
      f+1     :     0.000279
      f-1     :     0.000279
      f+2     :     0.000132
      f-2     :     0.000132
      f+3     :     0.000019
      f-3     :     0.000021
      g0      :     0.000001  g :     0.000009
      g+1     :     0.000002
      g-1     :     0.000002
      g+2     :     0.000002
      g-2     :     0.000001
      g+3     :     0.000001
      g-3     :     0.000000
      g+4     :     0.000000
      g-4     :     0.000000
  4 H s       :     0.840202  s :     0.840202
      pz      :     0.129858  p :     0.306795
      px      :     0.088475
      py      :     0.088462
      dz2     :     0.001588  d :     0.010819
      dxz     :     0.002697
      dyz     :     0.002696
      dx2y2   :     0.001919
      dxy     :     0.001919

SPIN
  0 Ags       :     0.002617  s :     0.002617
      pz      :     0.110074  p :     0.113806
      px      :     0.000255
      py      :     0.003477
      dz2     :     0.000205  d :     0.060476
      dxz     :    -0.000232
      dyz     :     0.056638
      dx2y2   :     0.004099
      dxy     :    -0.000233
      f0      :     0.000047  f :     0.000570
      f+1     :     0.000001
      f-1     :     0.000015
      f+2     :     0.000429
      f-2     :     0.000003
      f+3     :    -0.000002
      f-3     :     0.000077
      g0      :     0.000001  g :     0.000006
      g+1     :     0.000000
      g-1     :     0.000000
      g+2     :     0.000001
      g-2     :    -0.000000
      g+3     :     0.000000
      g-3     :     0.000003
      g+4     :     0.000001
      g-4     :     0.000000
  1 Ags       :     0.002615  s :     0.002615
      pz      :     0.110067  p :     0.113801
      px      :     0.002674
      py      :     0.001060
      dz2     :     0.000207  d :     0.060483
      dxz     :     0.042420
      dyz     :     0.013988
      dx2y2   :     0.000851
      dxy     :     0.003018
      f0      :     0.000047  f :     0.000570
      f+1     :     0.000011
      f-1     :     0.000004
      f+2     :     0.000109
      f-2     :     0.000322
      f+3     :    -0.000002
      f-3     :     0.000078
      g0      :     0.000001  g :     0.000006
      g+1     :    -0.000000
      g-1     :     0.000000
      g+2     :     0.000000
      g-2     :     0.000001
      g+3     :     0.000000
      g-3     :     0.000003
      g+4     :     0.000000
      g-4     :     0.000001
  2 Ags       :     0.002615  s :     0.002615
      pz      :     0.110067  p :     0.113801
      px      :     0.002674
      py      :     0.001060
      dz2     :     0.000207  d :     0.060483
      dxz     :     0.042420
      dyz     :     0.013988
      dx2y2   :     0.000851
      dxy     :     0.003018
      f0      :     0.000047  f :     0.000570
      f+1     :     0.000011
      f-1     :     0.000004
      f+2     :     0.000109
      f-2     :     0.000322
      f+3     :    -0.000002
      f-3     :     0.000078
      g0      :     0.000001  g :     0.000006
      g+1     :    -0.000000
      g-1     :     0.000000
      g+2     :     0.000000
      g-2     :     0.000001
      g+3     :     0.000000
      g-3     :     0.000003
      g+4     :     0.000000
      g-4     :     0.000001
  3 Ags       :     0.284917  s :     0.284917
      pz      :     0.000824  p :     0.003830
      px      :     0.001503
      py      :     0.001503
      dz2     :    -0.000634  d :    -0.006925
      dxz     :    -0.002721
      dyz     :    -0.002720
      dx2y2   :    -0.000425
      dxy     :    -0.000425
      f0      :     0.000026  f :     0.000038
      f+1     :     0.000001
      f-1     :     0.000001
      f+2     :     0.000004
      f-2     :     0.000004
      f+3     :     0.000001
      f-3     :     0.000002
      g0      :     0.000000  g :     0.000000
      g+1     :    -0.000000
      g-1     :    -0.000000
      g+2     :     0.000000
      g-2     :     0.000000
      g+3     :     0.000000
      g-3     :     0.000000
      g+4     :     0.000000
      g-4     :     0.000000
  4 H s       :     0.168613  s :     0.168613
      pz      :     0.015612  p :     0.017158
      px      :     0.000773
      py      :     0.000772
      dz2     :     0.000008  d :    -0.000056
      dxz     :    -0.000034
      dyz     :    -0.000034
      dx2y2   :     0.000002
      dxy     :     0.000002


                      *****************************
                      * MAYER POPULATION ANALYSIS *
                      *****************************

  NA   - Mulliken gross atomic population
  ZA   - Total nuclear charge
  QA   - Mulliken gross atomic charge
  VA   - Mayer's total valence
  BVA  - Mayer's bonded valence
  FA   - Mayer's free valence

  ATOM       NA         ZA         QA         VA         BVA        FA
  0 Ag    18.5650    19.0000     0.4350     1.4147     1.3951     0.0196
  1 Ag    18.5653    19.0000     0.4347     1.4149     1.3953     0.0196
  2 Ag    18.5653    19.0000     0.4347     1.4149     1.3953     0.0196
  3 Ag    18.5891    19.0000     0.4109     1.2098     1.0407     0.1691
  4 H      0.7153     1.0000     0.2847     0.6679     0.5888     0.0791

  Mayer bond orders larger than 0.100000
B(  0-Ag,  1-Ag) :   0.4352 B(  0-Ag,  2-Ag) :   0.4352 B(  0-Ag,  3-Ag) :   0.3377 
B(  0-Ag,  4-H ) :   0.1870 B(  1-Ag,  2-Ag) :   0.4353 B(  1-Ag,  3-Ag) :   0.3377 
B(  1-Ag,  4-H ) :   0.1871 B(  2-Ag,  3-Ag) :   0.3377 B(  2-Ag,  4-H ) :   0.1871 


-------
TIMINGS
-------

Total SCF time: 0 days 0 hours 0 min 4 sec 

Total time                  ....       4.961 sec
Sum of individual times     ....       4.775 sec  ( 96.3%)

Fock matrix formation       ....       2.817 sec  ( 56.8%)
  Split-RI-J                ....       1.161 sec  ( 41.2% of F)
  XC integration            ....       1.570 sec  ( 55.7% of F)
    Basis function eval.    ....       0.076 sec  (  4.9% of XC)
    Density eval.           ....       0.225 sec  ( 14.3% of XC)
    XC-Functional eval.     ....       0.042 sec  (  2.7% of XC)
    XC-Potential eval.      ....       0.463 sec  ( 29.5% of XC)
Diagonalization             ....       0.214 sec  (  4.3%)
Density matrix formation    ....       0.023 sec  (  0.5%)
Population analysis         ....       0.019 sec  (  0.4%)
Initial guess               ....       1.245 sec  ( 25.1%)
Orbital Transformation      ....       0.000 sec  (  0.0%)
Orbital Orthonormalization  ....       0.000 sec  (  0.0%)
DIIS solution               ....       0.071 sec  (  1.4%)
Grid generation             ....       0.385 sec  (  7.8%)


-------------------------------------------------------------------------------
                          DFT DISPERSION CORRECTION                            
                                                                               
                              DFTD3 V3.1  Rev 1                                
                          USING Becke-Johnson damping                          
-------------------------------------------------------------------------------
The TPSS functional is recognized
Active option DFTDOPT                   ...         4   

molecular C6(AA) [au] = 4524.494390 


            DFT-D V3
 parameters
 s6 scaling factor         :     1.0000 
 a1 scaling factor         :     0.4535 
 s8 scaling factor         :     1.9435 
 a2 scaling factor         :     4.4752 
 ad hoc parameters k1-k3   :    16.0000     1.3333    -4.0000 

 Edisp/kcal,au: -8.232095250297  -0.013118677426 
 E6   /kcal   :  -2.622874894 
 E8   /kcal   :  -5.609220356 
 % E8         :  68.138428740 

-------------------------   ----------------
Dispersion correction           -0.013118677
-------------------------   ----------------


-------------------------   --------------------
FINAL SINGLE POINT ENERGY      -587.741486253522
-------------------------   --------------------


                            ***************************************
                            *     ORCA property calculations      *
                            ***************************************

                                    ---------------------
                                    Active property flags
                                    ---------------------
   (+) Dipole Moment


------------------------------------------------------------------------------
                       ORCA ELECTRIC PROPERTIES CALCULATION
------------------------------------------------------------------------------

Dipole Moment Calculation                       ... on
Quadrupole Moment Calculation                   ... off
Polarizability Calculation                      ... off
GBWName                                         ... Ag04C2_H_F.gbw
Electron density file                           ... Ag04C2_H_F.scfp
The origin for moment calculation is the CENTER OF MASS  = ( 0.000000, -0.000000  0.009647)

-------------
DIPOLE MOMENT
-------------
                                X             Y             Z
Electronic contribution:      0.00000      -0.00003       2.49820
Nuclear contribution   :      0.00000       0.00000      -2.67399
                        -----------------------------------------
Total Dipole Moment    :      0.00000      -0.00003      -0.17578
                        -----------------------------------------
Magnitude (a.u.)       :      0.17578
Magnitude (Debye)      :      0.44681



--------------------
Rotational spectrum 
--------------------
 
Rotational constants in cm-1:     0.020237     0.018353     0.018353 
Rotational constants in MHz :   606.690796   550.208253   550.208173 

 Dipole components along the rotational axes: 
x,y,z [a.u.] :     0.175784     0.000000     0.000030 
x,y,z [Debye]:     0.446806     0.000000     0.000075 

 

Timings for individual modules:

Sum of individual times         ...        6.703 sec (=   0.112 min)
GTO integral calculation        ...        1.413 sec (=   0.024 min)  21.1 %
SCF iterations                  ...        5.290 sec (=   0.088 min)  78.9 %
                             ****ORCA TERMINATED NORMALLY****
TOTAL RUN TIME: 0 days 0 hours 0 minutes 7 seconds 196 msec
