
                                 *****************
                                 * O   R   C   A *
                                 *****************

           --- An Ab Initio, DFT and Semiempirical electronic structure package ---

                  #######################################################
                  #                        -***-                        #
                  #          Department of theory and spectroscopy      #
                  #               Directorship: Frank Neese             #
                  #        Max Planck Institute fuer Kohlenforschung    #
                  #                Kaiser Wilhelm Platz 1               #
                  #                 D-45470 Muelheim/Ruhr               #
                  #                      Germany                        #
                  #                                                     #
                  #                  All rights reserved                #
                  #                        -***-                        #
                  #######################################################


                         Program Version 4.2.0 -  RELEASE  -


 With contributions from (in alphabetic order):
   Daniel Aravena         : Magnetic Suceptibility
   Michael Atanasov       : Ab Initio Ligand Field Theory (pilot matlab implementation)
   Alexander A. Auer      : GIAO ZORA, VPT2
   Ute Becker             : Parallelization
   Giovanni Bistoni       : ED, misc. LED, open-shell LED, HFLED
   Martin Brehm           : Molecular dynamics
   Dmytro Bykov           : SCF Hessian
   Vijay G. Chilkuri      : MRCI spin determinant printing, contributions to CSF-ICE
   Dipayan Datta          : RHF DLPNO-CCSD density
   Achintya Kumar Dutta   : EOM-CC, STEOM-CC
   Dmitry Ganyushin       : Spin-Orbit,Spin-Spin,Magnetic field MRCI
   Miquel Garcia          : C-PCM Hessian, Gaussian charge scheme
   Yang Guo               : DLPNO-NEVPT2, CIM, IAO-localization
   Andreas Hansen         : Spin unrestricted coupled pair/coupled cluster methods
   Benjamin Helmich-Paris : CASSCF linear response (MC-RPA)
   Lee Huntington         : MR-EOM, pCC
   Robert Izsak           : Overlap fitted RIJCOSX, COSX-SCS-MP3, EOM
   Christian Kollmar      : KDIIS, OOCD, Brueckner-CCSD(T), CCSD density
   Simone Kossmann        : Meta GGA functionals, TD-DFT gradient, OOMP2, MP2 Hessian
   Martin Krupicka        : AUTO-CI
   Lucas Lang             : DCDCAS
   Dagmar Lenk            : GEPOL surface, SMD
   Dimitrios Liakos       : Extrapolation schemes; Compound Job, initial MDCI parallelization
   Dimitrios Manganas     : Further ROCIS development; embedding schemes
   Dimitrios Pantazis     : SARC Basis sets
   Taras Petrenko         : DFT Hessian,TD-DFT gradient, ASA, ECA, R-Raman, ABS, FL, XAS/XES, NRVS
   Peter Pinski           : DLPNO-MP2, DLPNO-MP2 Gradient
   Christoph Reimann      : Effective Core Potentials
   Marius Retegan         : Local ZFS, SOC
   Christoph Riplinger    : Optimizer, TS searches, QM/MM, DLPNO-CCSD(T), (RO)-DLPNO pert. Triples
   Tobias Risthaus        : Range-separated hybrids, TD-DFT gradient, RPA, STAB
   Michael Roemelt        : Original ROCIS implementation
   Masaaki Saitow         : Open-shell DLPNO-CCSD energy and density
   Barbara Sandhoefer     : DKH picture change effects
   Avijit Sen             : IP-ROCIS
   Kantharuban Sivalingam : CASSCF convergence, NEVPT2, FIC-MRCI
   Bernardo de Souza      : ESD, SOC TD-DFT
   Georgi Stoychev        : AutoAux, RI-MP2 NMR
   Willem Van den Heuvel  : Paramagnetic NMR
   Boris Wezisla          : Elementary symmetry handling
   Frank Wennmohs         : Technical directorship


 We gratefully acknowledge several colleagues who have allowed us to
 interface, adapt or use parts of their codes:
   Stefan Grimme, W. Hujo, H. Kruse,             : VdW corrections, initial TS optimization,
                  C. Bannwarth                     DFT functionals, gCP, sTDA/sTD-DF
   Ed Valeev, F. Pavosevic, A. Kumar             : LibInt (2-el integral package), F12 methods
   Garnet Chan, S. Sharma, J. Yang, R. Olivares  : DMRG
   Ulf Ekstrom                                   : XCFun DFT Library
   Mihaly Kallay                                 : mrcc  (arbitrary order and MRCC methods)
   Andreas Klamt, Michael Diedenhofen            : otool_cosmo (COSMO solvation model)
   Jiri Pittner, Ondrej Demel                    : Mk-CCSD
   Frank Weinhold                                : gennbo (NPA and NBO analysis)
   Christopher J. Cramer and Donald G. Truhlar   : smd solvation model
   Lars Goerigk                                  : TD-DFT with DH, B97 family of functionals
   V. Asgeirsson, H. Jonsson                     : NEB implementation
   FAccTs GmbH                                   : IRC, NEB, NEB-TS, Multilevel, MM, QM/MM, CI optimization
   S Lehtola, MJT Oliveira, MAL Marques          : LibXC Library


 Your calculation uses the libint2 library for the computation of 2-el integrals
 For citations please refer to: http://libint.valeyev.net

 Your ORCA version has been built with support for libXC version: 4.2.3
 For citations please refer to: https://tddft.org/programs/libxc/

 This ORCA versions uses:
   CBLAS   interface :  Fast vector & matrix operations
   LAPACKE interface :  Fast linear algebra routines
   SCALAPACK package :  Parallel linear algebra routines


Your calculation utilizes the atom-pairwise dispersion correction
with the Becke-Johnson damping scheme (D3BJ)
Cite in your paper:
S.Grimme, S.Ehrlich, L.Goerigk, J Comput Chem, (2011), 32, 1456–1465 
S.Grimme, J.Antony, S.Ehrlich and H.Krieg, J.Chem.Phys., 132, (2010), 154104 
   

----- Orbital basis set information -----
Your calculation utilizes the basis: def2-TZVPPD
   F. Weigend and R. Ahlrichs, Phys. Chem. Chem. Phys. 7, 3297 (2005).
   D. Rappoport and F. Furche, J. Chem. Phys. 133 134105 (2010).

----- AuxJ basis set information -----
Your calculation utilizes the auxiliary basis: def2/J
   F. Weigend, Phys. Chem. Chem. Phys. 8, 1057 (2006).

cite the ECPs for Au [Def2-ECP] as follows:
Ce-Yb(ecp-28): M. Dolg, H. Stoll, H.Preuss, J. Chem. Phys., 1989, 90, 1730-1734.
Y-Cd(ecp-28), Hf-Hg(ecp-46): D. Andrae,U. Haeussermann, M. Dolg, H. Stoll, H. Preuss, Theor. Chim. Acta, 1990, 77, 123-141.
In-Sb(ecp-28), Tl-Bi(ecp-46): B. Metz, H. Stoll, M. Dolg, J. Chem. Phys., 2000, 113, 2563-2569.
Te-Xe(ecp-28), Po-Rn(ecp-46): K. A. Peterson, D. Figgen, E. Goll, H. Stoll, M. Dolg, J. Chem. Phys., 2003, 119, 11113-11123.
Rb(ecp-28), Cs(ecp-46): T. Leininger, A. Nicklass, W. Kuechle, H. Stoll, M. Dolg, A. Bergner, Chem. Phys. Lett., 1996, 255, 274-280.
Sr(ecp-28), Ba(ecp-46): M. Kaupp, P. V. Schleyer, H. Stoll and H. Preuss, J. Chem. Phys., 1991, 94, 1360-1366.
La(ecp-46): M. Dolg, H. Stoll, A. Savin, H. Preuss, Theor. Chim. Acta, 1989, 75, 173-194.
Lu(ecp-28): X. Cao, M. Dolg, J. Chem. Phys., 2001, 115, 7348-7355.

ECP parameters for Au [Def2-ECP] have been obtained from:
TURBOMOLE (7.0.2)

================================================================================
                                        WARNINGS
                       Please study these warnings very carefully!
================================================================================


WARNING: your system is open-shell and RHF/RKS was chosen
  ===> : WILL SWITCH to UHF/UKS


INFO   : the flag for use of LIBINT has been found!

================================================================================
                                       INPUT FILE
================================================================================
NAME = Au03N0_D3H.in
|  1> #
|  2> # Au03N0_D3H TPSS-D3BJ/Def2-TZVPPD
|  3> #
|  4> ! tpss d3bj def2-tzvppd def2/j grid4 nofinalgrid slowconv
|  5> 
|  6> *xyz 0 2
|  7> Au       0.000000    1.515176   -0.000000 
|  8> Au       1.312181   -0.757588    0.000000 
|  9> Au      -1.312181   -0.757588   -0.000000 
| 10> *
| 11> 
| 12> %maxcore 5000
| 13> 
| 14> %pal
| 15> nprocs = 24
| 16> end
| 17> 
| 18> 
| 19>                          ****END OF INPUT****
================================================================================

                       ****************************
                       * Single Point Calculation *
                       ****************************

---------------------------------
CARTESIAN COORDINATES (ANGSTROEM)
---------------------------------
  Au     0.000000    1.515176   -0.000000
  Au     1.312181   -0.757588    0.000000
  Au    -1.312181   -0.757588   -0.000000

----------------------------
CARTESIAN COORDINATES (A.U.)
----------------------------
  NO LB      ZA    FRAG     MASS         X           Y           Z
   0 Au   19.0000*   0   196.966    0.000000    2.863268   -0.000000
   1 Au   19.0000*   0   196.966    2.479663   -1.431634    0.000000
   2 Au   19.0000*   0   196.966   -2.479663   -1.431634   -0.000000
* core charge reduced due to ECP

--------------------------------
INTERNAL COORDINATES (ANGSTROEM)
--------------------------------
 Au     0   0   0     0.000000000000     0.00000000     0.00000000
 Au     1   0   0     2.624361860807     0.00000000     0.00000000
 Au     1   2   0     2.624361860807    60.00000351     0.00000000

---------------------------
INTERNAL COORDINATES (A.U.)
---------------------------
 Au     0   0   0     0.000000000000     0.00000000     0.00000000
 Au     1   0   0     4.959325193233     0.00000000     0.00000000
 Au     1   2   0     4.959325193233    60.00000351     0.00000000

---------------------
BASIS SET INFORMATION
---------------------
There are 1 groups of distinct atoms

 Group   1 Type Au  : 8s8p6d2f1g contracted to 6s5p3d2f1g pattern {311111/41111/411/11/1}

Atom   0Au   basis set group =>   1
Atom   1Au   basis set group =>   1
Atom   2Au   basis set group =>   1
---------------------------------
AUXILIARY/J BASIS SET INFORMATION
---------------------------------
There are 1 groups of distinct atoms

 Group   1 Type Au  : 11s5p5d3f3g contracted to 8s5p5d2f3g pattern {41111111/11111/11111/21/111}

Atom   0Au   basis set group =>   1
Atom   1Au   basis set group =>   1
Atom   2Au   basis set group =>   1
-------------------------
ECP PARAMETER INFORMATION
-------------------------

 Group 1, Type Au ECP Def2-ECP (replacing 60 core electrons, lmax=3)

Atom   0Au   ECP group =>   1
Atom   1Au   ECP group =>   1
Atom   2Au   ECP group =>   1



           ************************************************************
           *        Program running with 24 parallel MPI-processes    *
           *              working on a common directory               *
           ************************************************************
------------------------------------------------------------------------------
                           ORCA GTO INTEGRAL CALCULATION
                           -- RI-GTO INTEGRALS CHOSEN --
------------------------------------------------------------------------------

                         BASIS SET STATISTICS AND STARTUP INFO

Gaussian basis set:
 # of primitive gaussian shells          ...   75
 # of primitive gaussian functions       ...  255
 # of contracted shells                  ...   51
 # of contracted basis functions         ...  177
 Highest angular momentum                ...    4
 Maximum contraction depth               ...    4
Auxiliary gaussian basis set:
 # of primitive gaussian shells          ...   81
 # of primitive gaussian functions       ...  297
 # of contracted shells                  ...   69
 # of contracted aux-basis functions     ...  267
 Highest angular momentum                ...    4
 Maximum contraction depth               ...    4
Ratio of auxiliary to basis functions    ...  1.51
Integral package used                  ... LIBINT
 One Electron integrals                  
   ECP integrals                         ... done
 Ordering auxiliary basis shells         ... done
 Integral threshhold             Thresh  ...  1.000e-10
 Primitive cut-off               TCut    ...  1.000e-11
 Pre-screening matrix                    ... done
 Shell pair data                         ... 
 Ordering of the shell pairs             ... done (   0.000 sec) 1296 of 1326 pairs
 Determination of significant pairs      ... done (   0.000 sec)
 Creation of shell pair data             ... done (   0.000 sec)
 Storage of shell pair data              ... done (   0.011 sec)
 Shell pair data done in (   0.011 sec)
 Computing two index integrals           ... done
 Cholesky decomposition of the V-matrix  ... done


Timings:
 Total evaluation time                   ...   0.580 sec (  0.010 min)
 One electron matrix time                ...   0.389 sec (  0.006 min) = 67.0%
 Schwartz matrix evaluation time         ...   0.141 sec (  0.002 min) = 24.4%
 Two index repulsion integral time       ...   0.001 sec (  0.000 min) =  0.2%
 Cholesky decomposition of V             ...   0.001 sec (  0.000 min) =  0.3%
 Three index repulsion integral time     ...   0.000 sec (  0.000 min) =  0.0%



           ************************************************************
           *        Program running with 24 parallel MPI-processes    *
           *              working on a common directory               *
           ************************************************************
-------------------------------------------------------------------------------
                                 ORCA SCF
-------------------------------------------------------------------------------

------------
SCF SETTINGS
------------
Hamiltonian:
 Density Functional     Method          .... DFT(GTOs)
 Exchange Functional    Exchange        .... TPSS
 Correlation Functional Correlation     .... TPSS
 LDA part of GGA corr.  LDAOpt          .... PW91-LDA
 Gradients option       PostSCFGGA      .... off
   Density functional embedding theory  .... OFF
   NL short-range parameter             ....  5.000000
 RI-approximation to the Coulomb term is turned on
   Number of auxiliary basis functions  .... 267


General Settings:
 Integral files         IntName         .... Au03N0_D3H
 Hartree-Fock type      HFTyp           .... UHF
 Total Charge           Charge          ....    0
 Multiplicity           Mult            ....    2
 Number of Electrons    NEL             ....   57
 Basis Dimension        Dim             ....  177
 Nuclear Repulsion      ENuc            ....    218.3764803991 Eh

Convergence Acceleration:
 DIIS                   CNVDIIS         .... on
   Start iteration      DIISMaxIt       ....     0
   Startup error        DIISStart       ....  0.200000
   # of expansion vecs  DIISMaxEq       ....     5
   Bias factor          DIISBfac        ....   1.050
   Max. coefficient     DIISMaxC        ....  10.000
 Newton-Raphson         CNVNR           .... off
 SOSCF                  CNVSOSCF        .... off
 Level Shifting         CNVShift        .... on
   Level shift para.    LevelShift      ....    0.2500
   Turn off err/grad.   ShiftErr        ....    0.0000
 Zerner damping         CNVZerner       .... off
 Static damping         CNVDamp         .... on
   Fraction old density DampFac         ....    0.8500
   Max. Damping (<1)    DampMax         ....    0.9800
   Min. Damping (>=0)   DampMin         ....    0.0000
   Turn off err/grad.   DampErr         ....    0.0300
 Fernandez-Rico         CNVRico         .... off

SCF Procedure:
 Maximum # iterations   MaxIter         ....   125
 SCF integral mode      SCFMode         .... Direct
   Integral package                     .... LIBINT
 Reset frequency        DirectResetFreq ....    20
 Integral Threshold     Thresh          ....  1.000e-10 Eh
 Primitive CutOff       TCut            ....  1.000e-11 Eh

Convergence Tolerance:
 Convergence Check Mode ConvCheckMode   .... Total+1el-Energy
 Convergence forced     ConvForced      .... 0
 Energy Change          TolE            ....  1.000e-06 Eh
 1-El. energy change                    ....  1.000e-03 Eh
 DIIS Error             TolErr          ....  1.000e-06


Diagonalization of the overlap matrix:
Smallest eigenvalue                        ... 1.685e-03
Time for diagonalization                   ...    0.006 sec
Threshold for overlap eigenvalues          ... 1.000e-08
Number of eigenvalues below threshold      ... 0
Time for construction of square roots      ...    0.003 sec
Total time needed                          ...    0.009 sec

-------------------
DFT GRID GENERATION
-------------------

General Integration Accuracy     IntAcc      ...  4.670
Radial Grid Type                 RadialGrid  ... Gauss-Chebyshev
Angular Grid (max. acc.)         AngularGrid ... Lebedev-302
Angular grid pruning method      GridPruning ... 3 (G Style)
Weight generation scheme         WeightScheme... Becke
Basis function cutoff            BFCut       ...    1.0000e-10
Integration weight cutoff        WCut        ...    1.0000e-14
Grids for H and He will be reduced by one unit

# of grid points (after initial pruning)     ...  34956 (   0.0 sec)
# of grid points (after weights+screening)   ...  34814 (   0.0 sec)
nearest neighbour list constructed           ...    0.0 sec
Grid point re-assignment to atoms done       ...    0.0 sec
Grid point division into batches done        ...    0.3 sec
Reduced shell lists constructed in    0.3 sec

Total number of grid points                  ...    34814
Total number of batches                      ...      545
Average number of points per batch           ...       63
Average number of grid points per atom       ...    11605
Average number of shells per batch           ...     4.38 ( 8.58%)
Average number of basis functions per batch  ...    11.12 ( 6.29%)
Average number of large shells per batch     ...     2.54 (58.10%)
Average number of large basis fcns per batch ...     6.04 (54.31%)
Maximum spatial batch extension              ...  27.54, 22.91, 24.85 au
Average spatial batch extension              ...   0.73,  0.63,  0.66 au

Time for grid setup =    0.384 sec

------------------------------
INITIAL GUESS: MODEL POTENTIAL
------------------------------
Loading Hartree-Fock densities                     ... done
  calling /sw/apps/orca/orca_4_2_0_linux_x86-64_openmpi314/orca Au03N0_D3H_atom79.inp > Au03N0_D3H_atom79.out in order to generate an atomic fitting density for atom 0 (Au with ECP) on-the-fly... 
    atom 0 (Au), assumed electronic state with S=2: 1s2 2s2 2p6 3s2 3p6 4s2 3d10 4p6 5s2 4d10 5p6 6s1 4f14 5d10           ... done
Calculating cut-offs                               ... done
Setting up the integral package                    ... done
Initializing the effective Hamiltonian             ... done
Starting the Coulomb interaction                   ... done (   0.0 sec)
Reading the grid                                   ... done
Mapping shells                                     ... done
Starting the XC term evaluation                    ... done (   0.0 sec)
  promolecular density results
     # of electrons  =    237.007571856
     EX              =  -1097.415459138
     EC              =    -14.480828760
     EX+EC           =  -1111.896287898
Transforming the Hamiltonian                       ... done (   0.0 sec)
Diagonalizing the Hamiltonian                      ... done (   0.0 sec)
Back transforming the eigenvectors                 ... done (   0.0 sec)
Now organizing SCF variables                       ... done
                      ------------------
                      INITIAL GUESS DONE (   1.4 sec)
                      ------------------
--------------
SCF ITERATIONS
--------------
ITER       Energy         Delta-E        Max-DP      RMS-DP      [F,P]     Damp
               ***  Starting incremental Fock matrix formation  ***
  0   -406.7831515287   0.000000000000 0.07583242  0.00098730  0.5850178 0.8500
  1   -406.8855895905  -0.102438061770 0.06520948  0.00089518  0.4921665 0.8500
                               ***Turning on DIIS***
  2   -406.9437093550  -0.058119764479 0.05033186  0.00068932  0.4130249 0.8500
  3   -406.9772055397  -0.033496184767 0.03318037  0.00044112  0.3474396 0.8500
  4   -407.0033905737  -0.026185033961 0.02597930  0.00033455  0.2944201 0.8500
  5   -407.0241213043  -0.020730730622 0.02352136  0.00028586  0.2504781 0.8500
  6   -407.0419457388  -0.017824434478 0.02112988  0.00025160  0.2132656 0.8500
  7   -407.0575480665  -0.015602327733 0.01970972  0.00023406  0.1814420 0.8500
  8   -407.0712508715  -0.013702804972 0.01596765  0.00019524  0.1539395 0.8500
  9   -407.0826942478  -0.011443376272 0.01283655  0.00015902  0.1306207 0.8500
 10   -407.0922466189  -0.009552371124 0.01087521  0.00013341  0.1109690 0.8500
 11   -407.1003057295  -0.008059110584 0.00955044  0.00011544  0.0943611 0.8500
 12   -407.1071705562  -0.006864826766 0.00835979  0.00010089  0.0802366 0.8500
 13   -407.1130196420  -0.005849085776 0.00703749  0.00008613  0.0681767 0.8500
 14   -407.1179785564  -0.004958914357 0.00584341  0.00007231  0.0579044 0.8500
 15   -407.1221772761  -0.004198719752 0.00493977  0.00006103  0.0491882 0.8500
 16   -407.1257375355  -0.003560259378 0.00425196  0.00005214  0.0418009 0.8500
 17   -407.1287615880  -0.003024052499 0.00365365  0.00004476  0.0355295 0.8500
 18   -407.1313311509  -0.002569562874 0.00309399  0.00003821  0.0301945 0.8500
 19   -407.1335135815  -0.002182430648 0.01735469  0.00021616  0.0256547 0.0000
               *** Restarting incremental Fock matrix formation ***
                                   *** Resetting DIIS ***
 20   -407.1458469569  -0.012333375347 0.00022406  0.00000554  0.0002456 0.0000
 21   -407.1458472887  -0.000000331874 0.00014016  0.00000314  0.0002521 0.0000
 22   -407.1458478748  -0.000000586026 0.00011246  0.00000237  0.0000641 0.0000
                 **** Energy Check signals convergence ****

               *****************************************************
               *                     SUCCESS                       *
               *           SCF CONVERGED AFTER  23 CYCLES          *
               *****************************************************


----------------
TOTAL SCF ENERGY
----------------

Total Energy       :         -407.14584811 Eh          -11079.00177 eV

Components:
Nuclear Repulsion  :          218.37648040 Eh            5942.32613 eV
Electronic Energy  :         -625.52232851 Eh          -17021.32791 eV
One Electron Energy:        -1151.61021617 Eh          -31336.90712 eV
Two Electron Energy:          526.08788766 Eh           14315.57921 eV

Virial components:
Potential Energy   :         -544.61411158 Eh          -14819.70340 eV
Kinetic Energy     :          137.46826347 Eh            3740.70162 eV
Virial Ratio       :            3.96174432


DFT components:
N(Alpha)           :       28.999992784557 electrons
N(Beta)            :       27.999991853380 electrons
N(Total)           :       56.999984637937 electrons
E(X)               :      -35.942899531821 Eh       
E(C)               :       -2.436432870526 Eh       
E(XC)              :      -38.379332402347 Eh       
DFET-embed. en.    :        0.000000000000 Eh       

---------------
SCF CONVERGENCE
---------------

  Last Energy change         ...   -2.3457e-07  Tolerance :   1.0000e-06
  Last MAX-Density change    ...    9.3830e-05  Tolerance :   1.0000e-05
  Last RMS-Density change    ...    2.0966e-06  Tolerance :   1.0000e-06
  Last DIIS Error            ...    8.0667e-06  Tolerance :   1.0000e-06

             **** THE GBW FILE WAS UPDATED (Au03N0_D3H.gbw) ****
             **** DENSITY FILE WAS UPDATED (Au03N0_D3H.scfp) ****
             **** ENERGY FILE WAS UPDATED (Au03N0_D3H.en.tmp) ****
----------------------
UHF SPIN CONTAMINATION
----------------------

Warning: in a DFT calculation there is little theoretical justification to 
         calculate <S**2> as in Hartree-Fock theory. We will do it anyways
         but you should keep in mind that the values have only limited relevance

Expectation value of <S**2>     :     0.767737
Ideal value S*(S+1) for S=0.5   :     0.750000
Deviation                       :     0.017737

             **** THE GBW FILE WAS UPDATED (Au03N0_D3H.gbw) ****
             **** DENSITY FILE WAS UPDATED (Au03N0_D3H.scfp) ****
----------------
ORBITAL ENERGIES
----------------
                 SPIN UP ORBITALS
  NO   OCC          E(Eh)            E(eV) 
   0   1.0000      -4.028831      -109.6301 
   1   1.0000      -4.028511      -109.6214 
   2   1.0000      -4.019012      -109.3629 
   3   1.0000      -2.246675       -61.1351 
   4   1.0000      -2.240862       -60.9769 
   5   1.0000      -2.237719       -60.8914 
   6   1.0000      -2.235471       -60.8303 
   7   1.0000      -2.232603       -60.7522 
   8   1.0000      -2.232002       -60.7359 
   9   1.0000      -2.230686       -60.7000 
  10   1.0000      -2.226963       -60.5987 
  11   1.0000      -2.219397       -60.3929 
  12   1.0000      -0.366183        -9.9644 
  13   1.0000      -0.324878        -8.8404 
  14   1.0000      -0.320834        -8.7303 
  15   1.0000      -0.312287        -8.4978 
  16   1.0000      -0.296241        -8.0611 
  17   1.0000      -0.284496        -7.7415 
  18   1.0000      -0.280521        -7.6334 
  19   1.0000      -0.264758        -7.2044 
  20   1.0000      -0.257920        -7.0183 
  21   1.0000      -0.254223        -6.9178 
  22   1.0000      -0.251224        -6.8361 
  23   1.0000      -0.251215        -6.8359 
  24   1.0000      -0.244799        -6.6613 
  25   1.0000      -0.243891        -6.6366 
  26   1.0000      -0.243330        -6.6213 
  27   1.0000      -0.226598        -6.1660 
  28   1.0000      -0.164835        -4.4854 
  29   0.0000      -0.165110        -4.4929 
  30   0.0000      -0.058337        -1.5874 
  31   0.0000      -0.041879        -1.1396 
  32   0.0000      -0.023210        -0.6316 
  33   0.0000      -0.022553        -0.6137 
  34   0.0000       0.022692         0.6175 
  35   0.0000       0.025591         0.6964 
  36   0.0000       0.051770         1.4087 
  37   0.0000       0.053396         1.4530 
  38   0.0000       0.082210         2.2370 
  39   0.0000       0.134607         3.6628 
  40   0.0000       0.146268         3.9802 
  41   0.0000       0.147728         4.0199 
  42   0.0000       0.161116         4.3842 
  43   0.0000       0.161522         4.3952 
  44   0.0000       0.201724         5.4892 
  45   0.0000       0.203899         5.5484 
  46   0.0000       0.217714         5.9243 
  47   0.0000       0.220619         6.0034 
  48   0.0000       0.269341         7.3291 
  49   0.0000       0.269809         7.3419 
  50   0.0000       0.292249         7.9525 
  51   0.0000       0.293677         7.9914 
  52   0.0000       0.294187         8.0052 
  53   0.0000       0.295651         8.0451 
  54   0.0000       0.319636         8.6977 
  55   0.0000       0.364778         9.9261 
  56   0.0000       0.365794         9.9538 
  57   0.0000       0.396310        10.7842 
  58   0.0000       0.433562        11.7978 
  59   0.0000       0.434826        11.8322 
  60   0.0000       0.441939        12.0258 
  61   0.0000       0.443038        12.0557 
  62   0.0000       0.454183        12.3590 
  63   0.0000       0.527268        14.3477 
  64   0.0000       0.528568        14.3831 
  65   0.0000       0.542136        14.7523 
  66   0.0000       0.776305        21.1243 
  67   0.0000       0.868549        23.6344 
  68   0.0000       0.870621        23.6908 
  69   0.0000       0.873556        23.7707 
  70   0.0000       0.890426        24.2297 
  71   0.0000       0.959270        26.1031 
  72   0.0000       0.962311        26.1858 
  73   0.0000       1.023808        27.8592 
  74   0.0000       1.031347        28.0644 
  75   0.0000       1.032053        28.0836 
  76   0.0000       1.032675        28.1005 
  77   0.0000       1.034336        28.1457 
  78   0.0000       1.042779        28.3755 
  79   0.0000       1.070183        29.1212 
  80   0.0000       1.072281        29.1782 
  81   0.0000       1.100082        29.9348 
  82   0.0000       1.116585        30.3838 
  83   0.0000       1.124640        30.6030 
  84   0.0000       1.168126        31.7863 
  85   0.0000       1.183422        32.2025 
  86   0.0000       1.185182        32.2504 
  87   0.0000       1.275461        34.7071 
  88   0.0000       1.286569        35.0093 
  89   0.0000       1.290006        35.1029 
  90   0.0000       1.293570        35.1998 
  91   0.0000       1.309839        35.6425 
  92   0.0000       1.314827        35.7783 
  93   0.0000       1.332339        36.2548 
  94   0.0000       1.334972        36.3264 
  95   0.0000       1.394340        37.9419 
  96   0.0000       1.401846        38.1462 
  97   0.0000       1.405656        38.2498 
  98   0.0000       1.413158        38.4540 
  99   0.0000       1.416675        38.5497 
 100   0.0000       1.443935        39.2915 
 101   0.0000       1.445762        39.3412 
 102   0.0000       1.464000        39.8375 
 103   0.0000       1.529314        41.6147 
 104   0.0000       1.538335        41.8602 
 105   0.0000       1.541866        41.9563 
 106   0.0000       1.590786        43.2875 
 107   0.0000       1.596426        43.4410 
 108   0.0000       1.793065        48.7918 
 109   0.0000       1.797103        48.9017 
 110   0.0000       2.001167        54.4545 
 111   0.0000       2.047501        55.7153 
 112   0.0000       2.571221        69.9665 
 113   0.0000       2.576805        70.1184 
 114   0.0000       3.360817        91.4525 
 115   0.0000       3.396131        92.4134 
 116   0.0000       3.415770        92.9478 
 117   0.0000       3.419397        93.0465 
 118   0.0000       3.460880        94.1753 
 119   0.0000       3.475746        94.5798 
 120   0.0000       3.481963        94.7490 
 121   0.0000       3.535182        96.1972 
 122   0.0000       3.542622        96.3997 
 123   0.0000       3.557699        96.8099 
 124   0.0000       3.566190        97.0410 
 125   0.0000       3.570615        97.1614 
 126   0.0000       3.573610        97.2429 
 127   0.0000       3.689788       100.4042 
 128   0.0000       3.712688       101.0274 
 129   0.0000       3.715012       101.0906 
 130   0.0000       3.715802       101.1121 
 131   0.0000       3.719946       101.2249 
 132   0.0000       3.807014       103.5941 
 133   0.0000       3.809048       103.6495 
 134   0.0000       3.875115       105.4473 
 135   0.0000       4.043187       110.0207 
 136   0.0000       4.043458       110.0281 
 137   0.0000       4.046516       110.1113 
 138   0.0000       4.047680       110.1430 
 139   0.0000       4.049873       110.2026 
 140   0.0000       4.051519       110.2474 
 141   0.0000       4.055051       110.3436 
 142   0.0000       4.057633       110.4138 
 143   0.0000       4.059097       110.4537 
 144   0.0000       4.059283       110.4587 
 145   0.0000       4.060081       110.4804 
 146   0.0000       4.061545       110.5203 
 147   0.0000       4.061602       110.5218 
 148   0.0000       4.062268       110.5399 
 149   0.0000       4.062420       110.5441 
 150   0.0000       4.067133       110.6723 
 151   0.0000       4.071318       110.7862 
 152   0.0000       4.075060       110.8880 
 153   0.0000       4.075091       110.8889 
 154   0.0000       4.099094       111.5420 
 155   0.0000       4.108659       111.8023 
 156   0.0000       4.111344       111.8754 
 157   0.0000       4.113356       111.9301 
 158   0.0000       4.116434       112.0139 
 159   0.0000       4.239977       115.3756 
 160   0.0000       4.244558       115.5003 
 161   0.0000       4.354620       118.4952 
 162   0.0000      27.145285       738.6608 
 163   0.0000      27.318863       743.3841 
 164   0.0000      27.324653       743.5416 
 165   0.0000      27.426388       746.3100 
 166   0.0000      27.521391       748.8951 
 167   0.0000      27.529982       749.1289 
 168   0.0000      29.006414       789.3046 
 169   0.0000      29.648287       806.7709 
 170   0.0000      29.654522       806.9406 
 171   0.0000      43.866847      1193.6776 
 172   0.0000      44.385022      1207.7778 
 173   0.0000      44.391585      1207.9565 
 174   0.0000     205.046754      5579.6058 
 175   0.0000     205.270293      5585.6886 
 176   0.0000     205.276963      5585.8701 

                 SPIN DOWN ORBITALS
  NO   OCC          E(Eh)            E(eV) 
   0   1.0000      -4.027999      -109.6074 
   1   1.0000      -4.027679      -109.5987 
   2   1.0000      -4.016910      -109.3057 
   3   1.0000      -2.245590       -61.1056 
   4   1.0000      -2.239671       -60.9446 
   5   1.0000      -2.236384       -60.8551 
   6   1.0000      -2.234395       -60.8010 
   7   1.0000      -2.232078       -60.7379 
   8   1.0000      -2.231479       -60.7216 
   9   1.0000      -2.228199       -60.6324 
  10   1.0000      -2.224704       -60.5373 
  11   1.0000      -2.217531       -60.3421 
  12   1.0000      -0.361800        -9.8451 
  13   1.0000      -0.322332        -8.7711 
  14   1.0000      -0.313246        -8.5239 
  15   1.0000      -0.310085        -8.4378 
  16   1.0000      -0.291987        -7.9454 
  17   1.0000      -0.282616        -7.6904 
  18   1.0000      -0.276931        -7.5357 
  19   1.0000      -0.262034        -7.1303 
  20   1.0000      -0.256303        -6.9744 
  21   1.0000      -0.252620        -6.8741 
  22   1.0000      -0.251065        -6.8318 
  23   1.0000      -0.244999        -6.6668 
  24   1.0000      -0.239327        -6.5124 
  25   1.0000      -0.237889        -6.4733 
  26   1.0000      -0.236655        -6.4397 
  27   1.0000      -0.219390        -5.9699 
  28   0.0000      -0.158537        -4.3140 
  29   0.0000      -0.140648        -3.8272 
  30   0.0000      -0.053027        -1.4430 
  31   0.0000      -0.032266        -0.8780 
  32   0.0000      -0.013188        -0.3589 
  33   0.0000      -0.009678        -0.2633 
  34   0.0000       0.025657         0.6982 
  35   0.0000       0.035288         0.9602 
  36   0.0000       0.058074         1.5803 
  37   0.0000       0.068111         1.8534 
  38   0.0000       0.091661         2.4942 
  39   0.0000       0.145225         3.9518 
  40   0.0000       0.151318         4.1176 
  41   0.0000       0.151677         4.1273 
  42   0.0000       0.171556         4.6683 
  43   0.0000       0.173739         4.7277 
  44   0.0000       0.206462         5.6181 
  45   0.0000       0.216822         5.9000 
  46   0.0000       0.220865         6.0100 
  47   0.0000       0.227614         6.1937 
  48   0.0000       0.275316         7.4917 
  49   0.0000       0.282497         7.6871 
  50   0.0000       0.296005         8.0547 
  51   0.0000       0.301322         8.1994 
  52   0.0000       0.301476         8.2036 
  53   0.0000       0.310048         8.4368 
  54   0.0000       0.325863         8.8672 
  55   0.0000       0.372001        10.1227 
  56   0.0000       0.375414        10.2155 
  57   0.0000       0.402948        10.9648 
  58   0.0000       0.437723        11.9110 
  59   0.0000       0.446451        12.1485 
  60   0.0000       0.450392        12.2558 
  61   0.0000       0.453746        12.3471 
  62   0.0000       0.462824        12.5941 
  63   0.0000       0.531194        14.4545 
  64   0.0000       0.538296        14.6478 
  65   0.0000       0.552698        15.0397 
  66   0.0000       0.781681        21.2706 
  67   0.0000       0.871005        23.7012 
  68   0.0000       0.878307        23.9000 
  69   0.0000       0.881552        23.9883 
  70   0.0000       0.894895        24.3513 
  71   0.0000       0.962356        26.1871 
  72   0.0000       0.969155        26.3721 
  73   0.0000       1.026921        27.9440 
  74   0.0000       1.033732        28.1293 
  75   0.0000       1.035982        28.1905 
  76   0.0000       1.037795        28.2398 
  77   0.0000       1.039026        28.2733 
  78   0.0000       1.049469        28.5575 
  79   0.0000       1.076507        29.2933 
  80   0.0000       1.077950        29.3325 
  81   0.0000       1.106226        30.1019 
  82   0.0000       1.119096        30.4522 
  83   0.0000       1.131904        30.8007 
  84   0.0000       1.174290        31.9541 
  85   0.0000       1.186744        32.2929 
  86   0.0000       1.191819        32.4311 
  87   0.0000       1.280324        34.8394 
  88   0.0000       1.290577        35.1184 
  89   0.0000       1.297610        35.3098 
  90   0.0000       1.304151        35.4878 
  91   0.0000       1.313631        35.7457 
  92   0.0000       1.323201        36.0061 
  93   0.0000       1.335813        36.3493 
  94   0.0000       1.342391        36.5283 
  95   0.0000       1.402605        38.1668 
  96   0.0000       1.405116        38.2352 
  97   0.0000       1.410994        38.3951 
  98   0.0000       1.419525        38.6272 
  99   0.0000       1.423860        38.7452 
 100   0.0000       1.446934        39.3731 
 101   0.0000       1.456137        39.6235 
 102   0.0000       1.473170        40.0870 
 103   0.0000       1.532577        41.7035 
 104   0.0000       1.543556        42.0023 
 105   0.0000       1.546839        42.0916 
 106   0.0000       1.592963        43.3467 
 107   0.0000       1.601449        43.5776 
 108   0.0000       1.795148        48.8485 
 109   0.0000       1.801030        49.0085 
 110   0.0000       2.004911        54.5564 
 111   0.0000       2.051403        55.8215 
 112   0.0000       2.573497        70.0284 
 113   0.0000       2.583213        70.2928 
 114   0.0000       3.364338        91.5483 
 115   0.0000       3.398112        92.4673 
 116   0.0000       3.417800        93.0031 
 117   0.0000       3.423094        93.1471 
 118   0.0000       3.462956        94.2318 
 119   0.0000       3.477178        94.6188 
 120   0.0000       3.484711        94.8238 
 121   0.0000       3.536420        96.2309 
 122   0.0000       3.545772        96.4853 
 123   0.0000       3.560084        96.8748 
 124   0.0000       3.566674        97.0541 
 125   0.0000       3.575217        97.2866 
 126   0.0000       3.578066        97.3641 
 127   0.0000       3.692838       100.4872 
 128   0.0000       3.715491       101.1037 
 129   0.0000       3.717420       101.1561 
 130   0.0000       3.721902       101.2781 
 131   0.0000       3.724905       101.3598 
 132   0.0000       3.809478       103.6612 
 133   0.0000       3.814212       103.7900 
 134   0.0000       3.880240       105.5867 
 135   0.0000       4.044643       110.0603 
 136   0.0000       4.047341       110.1337 
 137   0.0000       4.047950       110.1503 
 138   0.0000       4.049203       110.1844 
 139   0.0000       4.052535       110.2751 
 140   0.0000       4.053184       110.2927 
 141   0.0000       4.057944       110.4223 
 142   0.0000       4.059605       110.4675 
 143   0.0000       4.061360       110.5152 
 144   0.0000       4.061984       110.5322 
 145   0.0000       4.062779       110.5538 
 146   0.0000       4.063411       110.5710 
 147   0.0000       4.063732       110.5798 
 148   0.0000       4.064673       110.6054 
 149   0.0000       4.065473       110.6271 
 150   0.0000       4.072495       110.8182 
 151   0.0000       4.074804       110.8810 
 152   0.0000       4.077513       110.9548 
 153   0.0000       4.077607       110.9573 
 154   0.0000       4.099270       111.5468 
 155   0.0000       4.112864       111.9167 
 156   0.0000       4.115448       111.9870 
 157   0.0000       4.116584       112.0180 
 158   0.0000       4.121191       112.1433 
 159   0.0000       4.241710       115.4228 
 160   0.0000       4.247968       115.5931 
 161   0.0000       4.357606       118.5765 
 162   0.0000      27.146725       738.6999 
 163   0.0000      27.320320       743.4237 
 164   0.0000      27.327813       743.6276 
 165   0.0000      27.429449       746.3932 
 166   0.0000      27.522132       748.9153 
 167   0.0000      27.532306       749.1921 
 168   0.0000      29.008582       789.3636 
 169   0.0000      29.649730       806.8102 
 170   0.0000      29.658722       807.0548 
 171   0.0000      43.867583      1193.6976 
 172   0.0000      44.385486      1207.7905 
 173   0.0000      44.392548      1207.9826 
 174   0.0000     205.047300      5579.6207 
 175   0.0000     205.270617      5585.6975 
 176   0.0000     205.277764      5585.8919 

                    ********************************
                    * MULLIKEN POPULATION ANALYSIS *
                    ********************************

--------------------------------------------
MULLIKEN ATOMIC CHARGES AND SPIN POPULATIONS
--------------------------------------------
   0 Au:   -0.099019    0.624801
   1 Au:    0.049511    0.187599
   2 Au:    0.049508    0.187600
Sum of atomic charges         :   -0.0000000
Sum of atomic spin populations:    1.0000000

-----------------------------------------------------
MULLIKEN REDUCED ORBITAL CHARGES AND SPIN POPULATIONS
-----------------------------------------------------
CHARGE
  0 Aus       :     3.198613  s :     3.198613
      pz      :     2.018651  p :     6.169898
      px      :     2.024307
      py      :     2.126940
      dz2     :     1.965855  d :     9.719830
      dxz     :     1.990877
      dyz     :     1.979406
      dx2y2   :     1.959444
      dxy     :     1.824247
      f0      :     0.001124  f :     0.010510
      f+1     :     0.000592
      f-1     :     0.001482
      f+2     :     0.000660
      f-2     :     0.001428
      f+3     :     0.002679
      f-3     :     0.002545
      g0      :     0.000015  g :     0.000168
      g+1     :     0.000009
      g-1     :     0.000023
      g+2     :     0.000012
      g-2     :     0.000020
      g+3     :     0.000017
      g-3     :     0.000004
      g+4     :     0.000032
      g-4     :     0.000036
  1 Aus       :     2.943390  s :     2.943390
      pz      :     2.022962  p :     6.176789
      px      :     2.037792
      py      :     2.116035
      dz2     :     1.963898  d :     9.818941
      dxz     :     1.986145
      dyz     :     1.991298
      dx2y2   :     1.925125
      dxy     :     1.952476
      f0      :     0.001188  f :     0.011202
      f+1     :     0.001238
      f-1     :     0.000876
      f+2     :     0.001305
      f-2     :     0.000950
      f+3     :     0.002958
      f-3     :     0.002686
      g0      :     0.000013  g :     0.000166
      g+1     :     0.000018
      g-1     :     0.000011
      g+2     :     0.000017
      g-2     :     0.000013
      g+3     :     0.000018
      g-3     :     0.000005
      g+4     :     0.000038
      g-4     :     0.000034
  2 Aus       :     2.943393  s :     2.943393
      pz      :     2.022962  p :     6.176790
      px      :     2.037792
      py      :     2.116035
      dz2     :     1.963898  d :     9.818941
      dxz     :     1.986145
      dyz     :     1.991297
      dx2y2   :     1.925125
      dxy     :     1.952476
      f0      :     0.001188  f :     0.011202
      f+1     :     0.001238
      f-1     :     0.000876
      f+2     :     0.001305
      f-2     :     0.000950
      f+3     :     0.002958
      f-3     :     0.002686
      g0      :     0.000013  g :     0.000166
      g+1     :     0.000018
      g-1     :     0.000011
      g+2     :     0.000017
      g-2     :     0.000013
      g+3     :     0.000018
      g-3     :     0.000005
      g+4     :     0.000038
      g-4     :     0.000034

SPIN
  0 Aus       :     0.480115  s :     0.480115
      pz      :     0.000365  p :     0.081333
      px      :     0.003867
      py      :     0.077101
      dz2     :     0.011717  d :     0.063491
      dxz     :     0.000763
      dyz     :     0.001634
      dx2y2   :     0.011083
      dxy     :     0.038294
      f0      :    -0.000016  f :    -0.000146
      f+1     :    -0.000008
      f-1     :     0.000022
      f+2     :    -0.000009
      f-2     :    -0.000029
      f+3     :    -0.000063
      f-3     :    -0.000043
      g0      :     0.000001  g :     0.000009
      g+1     :     0.000001
      g-1     :     0.000002
      g+2     :     0.000001
      g-2     :     0.000001
      g+3     :     0.000000
      g-3     :     0.000000
      g+4     :     0.000001
      g-4     :     0.000001
  1 Aus       :     0.089053  s :     0.089053
      pz      :    -0.000553  p :     0.074237
      px      :    -0.002321
      py      :     0.077111
      dz2     :     0.004446  d :     0.024408
      dxz     :    -0.000293
      dyz     :    -0.000456
      dx2y2   :     0.003789
      dxy     :     0.016923
      f0      :    -0.000015  f :    -0.000099
      f+1     :    -0.000016
      f-1     :     0.000018
      f+2     :    -0.000016
      f-2     :    -0.000021
      f+3     :     0.000023
      f-3     :    -0.000071
      g0      :     0.000000  g :    -0.000000
      g+1     :    -0.000000
      g-1     :     0.000001
      g+2     :    -0.000000
      g-2     :     0.000000
      g+3     :    -0.000000
      g-3     :    -0.000000
      g+4     :    -0.000001
      g-4     :     0.000000
  2 Aus       :     0.089054  s :     0.089054
      pz      :    -0.000553  p :     0.074237
      px      :    -0.002321
      py      :     0.077111
      dz2     :     0.004446  d :     0.024408
      dxz     :    -0.000293
      dyz     :    -0.000456
      dx2y2   :     0.003789
      dxy     :     0.016923
      f0      :    -0.000015  f :    -0.000099
      f+1     :    -0.000016
      f-1     :     0.000018
      f+2     :    -0.000016
      f-2     :    -0.000021
      f+3     :     0.000023
      f-3     :    -0.000071
      g0      :     0.000000  g :    -0.000000
      g+1     :    -0.000000
      g-1     :     0.000001
      g+2     :    -0.000000
      g-2     :     0.000000
      g+3     :    -0.000000
      g-3     :    -0.000000
      g+4     :    -0.000001
      g-4     :     0.000000


                     *******************************
                     * LOEWDIN POPULATION ANALYSIS *
                     *******************************

-------------------------------------------
LOEWDIN ATOMIC CHARGES AND SPIN POPULATIONS
-------------------------------------------
   0 Au:   -0.063318    0.529481
   1 Au:    0.031659    0.235259
   2 Au:    0.031659    0.235260

----------------------------------------------------
LOEWDIN REDUCED ORBITAL CHARGES AND SPIN POPULATIONS
----------------------------------------------------
CHARGE
  0 Aus       :     2.864788  s :     2.864788
      pz      :     2.023227  p :     6.386696
      px      :     2.049910
      py      :     2.313558
      dz2     :     1.994976  d :     9.793057
      dxz     :     1.989824
      dyz     :     1.974256
      dx2y2   :     1.968086
      dxy     :     1.865914
      f0      :     0.001654  f :     0.018529
      f+1     :     0.001126
      f-1     :     0.002950
      f+2     :     0.000878
      f-2     :     0.002275
      f+3     :     0.005924
      f-3     :     0.003722
      g0      :     0.000022  g :     0.000248
      g+1     :     0.000011
      g-1     :     0.000028
      g+2     :     0.000017
      g-2     :     0.000032
      g+3     :     0.000025
      g-3     :     0.000004
      g+4     :     0.000046
      g-4     :     0.000062
  1 Aus       :     2.701582  s :     2.701582
      pz      :     2.027410  p :     6.355547
      px      :     2.113535
      py      :     2.214601
      dz2     :     1.989027  d :     9.891098
      dxz     :     1.982371
      dyz     :     1.988990
      dx2y2   :     1.960245
      dxy     :     1.970466
      f0      :     0.001724  f :     0.019867
      f+1     :     0.002151
      f-1     :     0.001705
      f+2     :     0.002003
      f-2     :     0.001341
      f+3     :     0.007091
      f-3     :     0.003851
      g0      :     0.000018  g :     0.000247
      g+1     :     0.000023
      g-1     :     0.000014
      g+2     :     0.000028
      g-2     :     0.000020
      g+3     :     0.000026
      g-3     :     0.000005
      g+4     :     0.000062
      g-4     :     0.000050
  2 Aus       :     2.701582  s :     2.701582
      pz      :     2.027410  p :     6.355547
      px      :     2.113535
      py      :     2.214601
      dz2     :     1.989027  d :     9.891098
      dxz     :     1.982371
      dyz     :     1.988990
      dx2y2   :     1.960245
      dxy     :     1.970466
      f0      :     0.001724  f :     0.019867
      f+1     :     0.002151
      f-1     :     0.001705
      f+2     :     0.002003
      f-2     :     0.001341
      f+3     :     0.007091
      f-3     :     0.003851
      g0      :     0.000018  g :     0.000247
      g+1     :     0.000023
      g-1     :     0.000014
      g+2     :     0.000028
      g-2     :     0.000020
      g+3     :     0.000026
      g-3     :     0.000005
      g+4     :     0.000062
      g-4     :     0.000050

SPIN
  0 Aus       :     0.301999  s :     0.301999
      pz      :     0.000750  p :     0.171252
      px      :     0.001791
      py      :     0.168710
      dz2     :     0.010945  d :     0.055689
      dxz     :     0.000016
      dyz     :     0.001019
      dx2y2   :     0.011242
      dxy     :     0.032466
      f0      :    -0.000008  f :     0.000528
      f+1     :     0.000020
      f-1     :     0.000469
      f+2     :     0.000001
      f-2     :    -0.000028
      f+3     :     0.000096
      f-3     :    -0.000024
      g0      :     0.000003  g :     0.000013
      g+1     :     0.000001
      g-1     :     0.000002
      g+2     :     0.000002
      g-2     :     0.000001
      g+3     :    -0.000000
      g-3     :     0.000000
      g+4     :     0.000004
      g-4     :     0.000001
  1 Aus       :     0.059137  s :     0.059137
      pz      :    -0.000157  p :     0.140316
      px      :    -0.002430
      py      :     0.142903
      dz2     :     0.004469  d :     0.035048
      dxz     :    -0.000393
      dyz     :    -0.000307
      dx2y2   :     0.010830
      dxy     :     0.020449
      f0      :    -0.000006  f :     0.000753
      f+1     :    -0.000019
      f-1     :     0.000256
      f+2     :    -0.000006
      f-2     :    -0.000009
      f+3     :     0.000578
      f-3     :    -0.000041
      g0      :     0.000001  g :     0.000005
      g+1     :    -0.000000
      g-1     :     0.000000
      g+2     :    -0.000000
      g-2     :     0.000001
      g+3     :    -0.000000
      g-3     :    -0.000000
      g+4     :    -0.000001
      g-4     :     0.000003
  2 Aus       :     0.059137  s :     0.059137
      pz      :    -0.000157  p :     0.140316
      px      :    -0.002430
      py      :     0.142903
      dz2     :     0.004469  d :     0.035048
      dxz     :    -0.000393
      dyz     :    -0.000307
      dx2y2   :     0.010830
      dxy     :     0.020449
      f0      :    -0.000006  f :     0.000753
      f+1     :    -0.000019
      f-1     :     0.000256
      f+2     :    -0.000006
      f-2     :    -0.000009
      f+3     :     0.000578
      f-3     :    -0.000041
      g0      :     0.000001  g :     0.000005
      g+1     :    -0.000000
      g-1     :     0.000000
      g+2     :    -0.000000
      g-2     :     0.000001
      g+3     :    -0.000000
      g-3     :    -0.000000
      g+4     :    -0.000001
      g-4     :     0.000003


                      *****************************
                      * MAYER POPULATION ANALYSIS *
                      *****************************

  NA   - Mulliken gross atomic population
  ZA   - Total nuclear charge
  QA   - Mulliken gross atomic charge
  VA   - Mayer's total valence
  BVA  - Mayer's bonded valence
  FA   - Mayer's free valence

  ATOM       NA         ZA         QA         VA         BVA        FA
  0 Au    19.0990    19.0000    -0.0990     1.6845     1.3279     0.3566
  1 Au    18.9505    19.0000     0.0495     1.5269     1.4577     0.0692
  2 Au    18.9505    19.0000     0.0495     1.5269     1.4577     0.0692

  Mayer bond orders larger than 0.100000
B(  0-Au,  1-Au) :   0.6639 B(  0-Au,  2-Au) :   0.6639 B(  1-Au,  2-Au) :   0.7938 


-------
TIMINGS
-------

Total SCF time: 0 days 0 hours 0 min 5 sec 

Total time                  ....       5.944 sec
Sum of individual times     ....       5.761 sec  ( 96.9%)

Fock matrix formation       ....       4.023 sec  ( 67.7%)
  Split-RI-J                ....       2.072 sec  ( 51.5% of F)
  XC integration            ....       1.827 sec  ( 45.4% of F)
    Basis function eval.    ....       0.105 sec  (  5.7% of XC)
    Density eval.           ....       0.295 sec  ( 16.1% of XC)
    XC-Functional eval.     ....       0.067 sec  (  3.7% of XC)
    XC-Potential eval.      ....       0.662 sec  ( 36.2% of XC)
Diagonalization             ....       0.200 sec  (  3.4%)
Density matrix formation    ....       0.030 sec  (  0.5%)
Population analysis         ....       0.010 sec  (  0.2%)
Initial guess               ....       1.041 sec  ( 17.5%)
Orbital Transformation      ....       0.000 sec  (  0.0%)
Orbital Orthonormalization  ....       0.000 sec  (  0.0%)
DIIS solution               ....       0.072 sec  (  1.2%)
Grid generation             ....       0.384 sec  (  6.5%)


-------------------------------------------------------------------------------
                          DFT DISPERSION CORRECTION                            
                                                                               
                              DFTD3 V3.1  Rev 1                                
                          USING Becke-Johnson damping                          
-------------------------------------------------------------------------------
The TPSS functional is recognized
Active option DFTDOPT                   ...         4   

molecular C6(AA) [au] = 2854.410647 


            DFT-D V3
 parameters
 s6 scaling factor         :     1.0000 
 a1 scaling factor         :     0.4535 
 s8 scaling factor         :     1.9435 
 a2 scaling factor         :     4.4752 
 ad hoc parameters k1-k3   :    16.0000     1.3333    -4.0000 

 Edisp/kcal,au: -3.834202218170  -0.006110189515 
 E6   /kcal   :  -1.123356479 
 E8   /kcal   :  -2.710845739 
 % E8         :  70.701689289 

-------------------------   ----------------
Dispersion correction           -0.006110190
-------------------------   ----------------


-------------------------   --------------------
FINAL SINGLE POINT ENERGY      -407.151958298846
-------------------------   --------------------


                            ***************************************
                            *     ORCA property calculations      *
                            ***************************************

                                    ---------------------
                                    Active property flags
                                    ---------------------
   (+) Dipole Moment


------------------------------------------------------------------------------
                       ORCA ELECTRIC PROPERTIES CALCULATION
------------------------------------------------------------------------------

Dipole Moment Calculation                       ... on
Quadrupole Moment Calculation                   ... off
Polarizability Calculation                      ... off
GBWName                                         ... Au03N0_D3H.gbw
Electron density file                           ... Au03N0_D3H.scfp
The origin for moment calculation is the CENTER OF MASS  = ( 0.000000,  0.000000  0.000000)

-------------
DIPOLE MOMENT
-------------
                                X             Y             Z
Electronic contribution:      0.00000      -0.45985      -0.00000
Nuclear contribution   :      0.00000       0.00000       0.00000
                        -----------------------------------------
Total Dipole Moment    :      0.00000      -0.45985      -0.00000
                        -----------------------------------------
Magnitude (a.u.)       :      0.45985
Magnitude (Debye)      :      1.16885



--------------------
Rotational spectrum 
--------------------
 
Rotational constants in cm-1:     0.024853     0.024853     0.012427 
Rotational constants in MHz :   745.088417   745.088311   372.544182 

 Dipole components along the rotational axes: 
x,y,z [a.u.] :     0.000001    -0.459851    -0.000000 
x,y,z [Debye]:     0.000002    -1.168849    -0.000000 

 

Timings for individual modules:

Sum of individual times         ...        7.254 sec (=   0.121 min)
GTO integral calculation        ...        0.975 sec (=   0.016 min)  13.4 %
SCF iterations                  ...        6.279 sec (=   0.105 min)  86.6 %
                             ****ORCA TERMINATED NORMALLY****
TOTAL RUN TIME: 0 days 0 hours 0 minutes 7 seconds 724 msec
