
                                 *****************
                                 * O   R   C   A *
                                 *****************

           --- An Ab Initio, DFT and Semiempirical electronic structure package ---

                  #######################################################
                  #                        -***-                        #
                  #          Department of theory and spectroscopy      #
                  #               Directorship: Frank Neese             #
                  #        Max Planck Institute fuer Kohlenforschung    #
                  #                Kaiser Wilhelm Platz 1               #
                  #                 D-45470 Muelheim/Ruhr               #
                  #                      Germany                        #
                  #                                                     #
                  #                  All rights reserved                #
                  #                        -***-                        #
                  #######################################################


                         Program Version 4.2.0 -  RELEASE  -


 With contributions from (in alphabetic order):
   Daniel Aravena         : Magnetic Suceptibility
   Michael Atanasov       : Ab Initio Ligand Field Theory (pilot matlab implementation)
   Alexander A. Auer      : GIAO ZORA, VPT2
   Ute Becker             : Parallelization
   Giovanni Bistoni       : ED, misc. LED, open-shell LED, HFLED
   Martin Brehm           : Molecular dynamics
   Dmytro Bykov           : SCF Hessian
   Vijay G. Chilkuri      : MRCI spin determinant printing, contributions to CSF-ICE
   Dipayan Datta          : RHF DLPNO-CCSD density
   Achintya Kumar Dutta   : EOM-CC, STEOM-CC
   Dmitry Ganyushin       : Spin-Orbit,Spin-Spin,Magnetic field MRCI
   Miquel Garcia          : C-PCM Hessian, Gaussian charge scheme
   Yang Guo               : DLPNO-NEVPT2, CIM, IAO-localization
   Andreas Hansen         : Spin unrestricted coupled pair/coupled cluster methods
   Benjamin Helmich-Paris : CASSCF linear response (MC-RPA)
   Lee Huntington         : MR-EOM, pCC
   Robert Izsak           : Overlap fitted RIJCOSX, COSX-SCS-MP3, EOM
   Christian Kollmar      : KDIIS, OOCD, Brueckner-CCSD(T), CCSD density
   Simone Kossmann        : Meta GGA functionals, TD-DFT gradient, OOMP2, MP2 Hessian
   Martin Krupicka        : AUTO-CI
   Lucas Lang             : DCDCAS
   Dagmar Lenk            : GEPOL surface, SMD
   Dimitrios Liakos       : Extrapolation schemes; Compound Job, initial MDCI parallelization
   Dimitrios Manganas     : Further ROCIS development; embedding schemes
   Dimitrios Pantazis     : SARC Basis sets
   Taras Petrenko         : DFT Hessian,TD-DFT gradient, ASA, ECA, R-Raman, ABS, FL, XAS/XES, NRVS
   Peter Pinski           : DLPNO-MP2, DLPNO-MP2 Gradient
   Christoph Reimann      : Effective Core Potentials
   Marius Retegan         : Local ZFS, SOC
   Christoph Riplinger    : Optimizer, TS searches, QM/MM, DLPNO-CCSD(T), (RO)-DLPNO pert. Triples
   Tobias Risthaus        : Range-separated hybrids, TD-DFT gradient, RPA, STAB
   Michael Roemelt        : Original ROCIS implementation
   Masaaki Saitow         : Open-shell DLPNO-CCSD energy and density
   Barbara Sandhoefer     : DKH picture change effects
   Avijit Sen             : IP-ROCIS
   Kantharuban Sivalingam : CASSCF convergence, NEVPT2, FIC-MRCI
   Bernardo de Souza      : ESD, SOC TD-DFT
   Georgi Stoychev        : AutoAux, RI-MP2 NMR
   Willem Van den Heuvel  : Paramagnetic NMR
   Boris Wezisla          : Elementary symmetry handling
   Frank Wennmohs         : Technical directorship


 We gratefully acknowledge several colleagues who have allowed us to
 interface, adapt or use parts of their codes:
   Stefan Grimme, W. Hujo, H. Kruse,             : VdW corrections, initial TS optimization,
                  C. Bannwarth                     DFT functionals, gCP, sTDA/sTD-DF
   Ed Valeev, F. Pavosevic, A. Kumar             : LibInt (2-el integral package), F12 methods
   Garnet Chan, S. Sharma, J. Yang, R. Olivares  : DMRG
   Ulf Ekstrom                                   : XCFun DFT Library
   Mihaly Kallay                                 : mrcc  (arbitrary order and MRCC methods)
   Andreas Klamt, Michael Diedenhofen            : otool_cosmo (COSMO solvation model)
   Jiri Pittner, Ondrej Demel                    : Mk-CCSD
   Frank Weinhold                                : gennbo (NPA and NBO analysis)
   Christopher J. Cramer and Donald G. Truhlar   : smd solvation model
   Lars Goerigk                                  : TD-DFT with DH, B97 family of functionals
   V. Asgeirsson, H. Jonsson                     : NEB implementation
   FAccTs GmbH                                   : IRC, NEB, NEB-TS, Multilevel, MM, QM/MM, CI optimization
   S Lehtola, MJT Oliveira, MAL Marques          : LibXC Library


 Your calculation uses the libint2 library for the computation of 2-el integrals
 For citations please refer to: http://libint.valeyev.net

 Your ORCA version has been built with support for libXC version: 4.2.3
 For citations please refer to: https://tddft.org/programs/libxc/

 This ORCA versions uses:
   CBLAS   interface :  Fast vector & matrix operations
   LAPACKE interface :  Fast linear algebra routines
   SCALAPACK package :  Parallel linear algebra routines


Your calculation utilizes the atom-pairwise dispersion correction
with the Becke-Johnson damping scheme (D3BJ)
Cite in your paper:
S.Grimme, S.Ehrlich, L.Goerigk, J Comput Chem, (2011), 32, 1456–1465 
S.Grimme, J.Antony, S.Ehrlich and H.Krieg, J.Chem.Phys., 132, (2010), 154104 
   

----- Orbital basis set information -----
Your calculation utilizes the basis: def2-TZVPPD
   F. Weigend and R. Ahlrichs, Phys. Chem. Chem. Phys. 7, 3297 (2005).
   D. Rappoport and F. Furche, J. Chem. Phys. 133 134105 (2010).

----- AuxJ basis set information -----
Your calculation utilizes the auxiliary basis: def2/J
   F. Weigend, Phys. Chem. Chem. Phys. 8, 1057 (2006).

cite the ECPs for Au [Def2-ECP] as follows:
Ce-Yb(ecp-28): M. Dolg, H. Stoll, H.Preuss, J. Chem. Phys., 1989, 90, 1730-1734.
Y-Cd(ecp-28), Hf-Hg(ecp-46): D. Andrae,U. Haeussermann, M. Dolg, H. Stoll, H. Preuss, Theor. Chim. Acta, 1990, 77, 123-141.
In-Sb(ecp-28), Tl-Bi(ecp-46): B. Metz, H. Stoll, M. Dolg, J. Chem. Phys., 2000, 113, 2563-2569.
Te-Xe(ecp-28), Po-Rn(ecp-46): K. A. Peterson, D. Figgen, E. Goll, H. Stoll, M. Dolg, J. Chem. Phys., 2003, 119, 11113-11123.
Rb(ecp-28), Cs(ecp-46): T. Leininger, A. Nicklass, W. Kuechle, H. Stoll, M. Dolg, A. Bergner, Chem. Phys. Lett., 1996, 255, 274-280.
Sr(ecp-28), Ba(ecp-46): M. Kaupp, P. V. Schleyer, H. Stoll and H. Preuss, J. Chem. Phys., 1991, 94, 1360-1366.
La(ecp-46): M. Dolg, H. Stoll, A. Savin, H. Preuss, Theor. Chim. Acta, 1989, 75, 173-194.
Lu(ecp-28): X. Cao, M. Dolg, J. Chem. Phys., 2001, 115, 7348-7355.

ECP parameters for Au [Def2-ECP] have been obtained from:
TURBOMOLE (7.0.2)

================================================================================
                                        WARNINGS
                       Please study these warnings very carefully!
================================================================================


INFO   : the flag for use of LIBINT has been found!

================================================================================
                                       INPUT FILE
================================================================================
NAME = Au04C2_NH3_F.in
|  1> #
|  2> # Au04C2_NH3_F TPSS-D3BJ/Def2-TZVPPD
|  3> #
|  4> ! tpss d3bj def2-tzvppd def2/j grid4 nofinalgrid
|  5> 
|  6> *xyz 2 1
|  7> Au       0.000000    1.548281   -0.453246 
|  8> Au       1.340851   -0.774141   -0.453246 
|  9> Au      -1.340851   -0.774141   -0.453246 
| 10> Au       0.000000    0.000000    1.783664 
| 11> N        0.000000    0.000000   -3.226055 
| 12> H       -0.813891    0.469900   -3.635956 
| 13> H        0.813891    0.469900   -3.635956 
| 14> H       -0.000000   -0.939800   -3.635956 
| 15> *
| 16> 
| 17> %maxcore 5000
| 18> 
| 19> %pal
| 20> nprocs = 24
| 21> end
| 22> 
| 23> 
| 24>                          ****END OF INPUT****
================================================================================

                       ****************************
                       * Single Point Calculation *
                       ****************************

---------------------------------
CARTESIAN COORDINATES (ANGSTROEM)
---------------------------------
  Au     0.000000    1.548281   -0.453246
  Au     1.340851   -0.774141   -0.453246
  Au    -1.340851   -0.774141   -0.453246
  Au     0.000000    0.000000    1.783664
  N      0.000000    0.000000   -3.226055
  H     -0.813891    0.469900   -3.635956
  H      0.813891    0.469900   -3.635956
  H     -0.000000   -0.939800   -3.635956

----------------------------
CARTESIAN COORDINATES (A.U.)
----------------------------
  NO LB      ZA    FRAG     MASS         X           Y           Z
   0 Au   19.0000*   0   196.966    0.000000    2.925827   -0.856511
   1 Au   19.0000*   0   196.966    2.533841   -1.462914   -0.856511
   2 Au   19.0000*   0   196.966   -2.533841   -1.462914   -0.856511
   3 Au   19.0000*   0   196.966    0.000000    0.000000    3.370636
   4 N     7.0000    0    14.007    0.000000    0.000000   -6.096360
   5 H     1.0000    0     1.008   -1.538031    0.887982   -6.870961
   6 H     1.0000    0     1.008    1.538031    0.887982   -6.870961
   7 H     1.0000    0     1.008   -0.000000   -1.775965   -6.870961
* core charge reduced due to ECP

--------------------------------
INTERNAL COORDINATES (ANGSTROEM)
--------------------------------
 Au     0   0   0     0.000000000000     0.00000000     0.00000000
 Au     1   0   0     2.681701950308     0.00000000     0.00000000
 Au     1   2   0     2.681701950308    60.00000123     0.00000000
 Au     1   2   3     2.720466945776    60.47026453    70.91049912
 N      1   2   3     3.175790264712    65.02580193   285.59920124
 H      5   1   2     1.025301614005    97.21661941   160.33106466
 H      5   1   2     1.025301614005    97.21661941   266.61895160
 H      5   1   2     1.025301355603   142.74290919    33.47500813

---------------------------
INTERNAL COORDINATES (A.U.)
---------------------------
 Au     0   0   0     0.000000000000     0.00000000     0.00000000
 Au     1   0   0     5.067682258884     0.00000000     0.00000000
 Au     1   2   0     5.067682258884    60.00000123     0.00000000
 Au     1   2   3     5.140937483902    60.47026453    70.91049912
 N      1   2   3     6.001373859080    65.02580193   285.59920124
 H      5   1   2     1.937539255138    97.21661941   160.33106466
 H      5   1   2     1.937539255138    97.21661941   266.61895160
 H      5   1   2     1.937538766828   142.74290919    33.47500813

---------------------
BASIS SET INFORMATION
---------------------
There are 3 groups of distinct atoms

 Group   1 Type Au  : 8s8p6d2f1g contracted to 6s5p3d2f1g pattern {311111/41111/411/11/1}
 Group   2 Type N   : 12s6p3d1f contracted to 6s3p3d1f pattern {621111/411/111/1}
 Group   3 Type H   : 5s3p1d contracted to 3s3p1d pattern {311/111/1}

Atom   0Au   basis set group =>   1
Atom   1Au   basis set group =>   1
Atom   2Au   basis set group =>   1
Atom   3Au   basis set group =>   1
Atom   4N    basis set group =>   2
Atom   5H    basis set group =>   3
Atom   6H    basis set group =>   3
Atom   7H    basis set group =>   3
---------------------------------
AUXILIARY/J BASIS SET INFORMATION
---------------------------------
There are 3 groups of distinct atoms

 Group   1 Type Au  : 11s5p5d3f3g contracted to 8s5p5d2f3g pattern {41111111/11111/11111/21/111}
 Group   2 Type N   : 12s5p4d2f1g contracted to 6s4p3d1f1g pattern {711111/2111/211/2/1}
 Group   3 Type H   : 5s2p1d contracted to 3s1p1d pattern {311/2/1}

Atom   0Au   basis set group =>   1
Atom   1Au   basis set group =>   1
Atom   2Au   basis set group =>   1
Atom   3Au   basis set group =>   1
Atom   4N    basis set group =>   2
Atom   5H    basis set group =>   3
Atom   6H    basis set group =>   3
Atom   7H    basis set group =>   3
-------------------------
ECP PARAMETER INFORMATION
-------------------------

 Group 1, Type Au ECP Def2-ECP (replacing 60 core electrons, lmax=3)

Atom   0Au   ECP group =>   1
Atom   1Au   ECP group =>   1
Atom   2Au   ECP group =>   1
Atom   3Au   ECP group =>   1



           ************************************************************
           *        Program running with 24 parallel MPI-processes    *
           *              working on a common directory               *
           ************************************************************
------------------------------------------------------------------------------
                           ORCA GTO INTEGRAL CALCULATION
                           -- RI-GTO INTEGRALS CHOSEN --
------------------------------------------------------------------------------

                         BASIS SET STATISTICS AND STARTUP INFO

Gaussian basis set:
 # of primitive gaussian shells          ...  149
 # of primitive gaussian functions       ...  449
 # of contracted shells                  ...  102
 # of contracted basis functions         ...  324
 Highest angular momentum                ...    4
 Maximum contraction depth               ...    6
Auxiliary gaussian basis set:
 # of primitive gaussian shells          ...  156
 # of primitive gaussian functions       ...  514
 # of contracted shells                  ...  122
 # of contracted aux-basis functions     ...  438
 Highest angular momentum                ...    4
 Maximum contraction depth               ...    7
Ratio of auxiliary to basis functions    ...  1.35
Integral package used                  ... LIBINT
 One Electron integrals                  
   ECP integrals                         ... done
 Ordering auxiliary basis shells         ... done
 Integral threshhold             Thresh  ...  1.000e-10
 Primitive cut-off               TCut    ...  1.000e-11
 Pre-screening matrix                    ... done
 Shell pair data                         ... 
 Ordering of the shell pairs             ... done (   0.001 sec) 4845 of 5253 pairs
 Determination of significant pairs      ... done (   0.000 sec)
 Creation of shell pair data             ... done (   0.000 sec)
 Storage of shell pair data              ... done (   0.013 sec)
 Shell pair data done in (   0.014 sec)
 Computing two index integrals           ... done
 Cholesky decomposition of the V-matrix  ... done


Timings:
 Total evaluation time                   ...   1.874 sec (  0.031 min)
 One electron matrix time                ...   1.605 sec (  0.027 min) = 85.6%
 Schwartz matrix evaluation time         ...   0.216 sec (  0.004 min) = 11.5%
 Two index repulsion integral time       ...   0.003 sec (  0.000 min) =  0.2%
 Cholesky decomposition of V             ...   0.006 sec (  0.000 min) =  0.3%
 Three index repulsion integral time     ...   0.000 sec (  0.000 min) =  0.0%



           ************************************************************
           *        Program running with 24 parallel MPI-processes    *
           *              working on a common directory               *
           ************************************************************
-------------------------------------------------------------------------------
                                 ORCA SCF
-------------------------------------------------------------------------------

------------
SCF SETTINGS
------------
Hamiltonian:
 Density Functional     Method          .... DFT(GTOs)
 Exchange Functional    Exchange        .... TPSS
 Correlation Functional Correlation     .... TPSS
 LDA part of GGA corr.  LDAOpt          .... PW91-LDA
 Gradients option       PostSCFGGA      .... off
   Density functional embedding theory  .... OFF
   NL short-range parameter             ....  5.000000
 RI-approximation to the Coulomb term is turned on
   Number of auxiliary basis functions  .... 438


General Settings:
 Integral files         IntName         .... Au04C2_NH3_F
 Hartree-Fock type      HFTyp           .... RHF
 Total Charge           Charge          ....    2
 Multiplicity           Mult            ....    1
 Number of Electrons    NEL             ....   84
 Basis Dimension        Dim             ....  324
 Nuclear Repulsion      ENuc            ....    547.1140356214 Eh

Convergence Acceleration:
 DIIS                   CNVDIIS         .... on
   Start iteration      DIISMaxIt       ....    12
   Startup error        DIISStart       ....  0.200000
   # of expansion vecs  DIISMaxEq       ....     5
   Bias factor          DIISBfac        ....   1.050
   Max. coefficient     DIISMaxC        ....  10.000
 Newton-Raphson         CNVNR           .... off
 SOSCF                  CNVSOSCF        .... off
 Level Shifting         CNVShift        .... on
   Level shift para.    LevelShift      ....    0.2500
   Turn off err/grad.   ShiftErr        ....    0.0010
 Zerner damping         CNVZerner       .... off
 Static damping         CNVDamp         .... on
   Fraction old density DampFac         ....    0.7000
   Max. Damping (<1)    DampMax         ....    0.9800
   Min. Damping (>=0)   DampMin         ....    0.0000
   Turn off err/grad.   DampErr         ....    0.1000
 Fernandez-Rico         CNVRico         .... off

SCF Procedure:
 Maximum # iterations   MaxIter         ....   125
 SCF integral mode      SCFMode         .... Direct
   Integral package                     .... LIBINT
 Reset frequency        DirectResetFreq ....    20
 Integral Threshold     Thresh          ....  1.000e-10 Eh
 Primitive CutOff       TCut            ....  1.000e-11 Eh

Convergence Tolerance:
 Convergence Check Mode ConvCheckMode   .... Total+1el-Energy
 Convergence forced     ConvForced      .... 0
 Energy Change          TolE            ....  1.000e-06 Eh
 1-El. energy change                    ....  1.000e-03 Eh
 DIIS Error             TolErr          ....  1.000e-06


Diagonalization of the overlap matrix:
Smallest eigenvalue                        ... 2.619e-04
Time for diagonalization                   ...    0.017 sec
Threshold for overlap eigenvalues          ... 1.000e-08
Number of eigenvalues below threshold      ... 0
Time for construction of square roots      ...    0.013 sec
Total time needed                          ...    0.030 sec

-------------------
DFT GRID GENERATION
-------------------

General Integration Accuracy     IntAcc      ...  4.670
Radial Grid Type                 RadialGrid  ... Gauss-Chebyshev
Angular Grid (max. acc.)         AngularGrid ... Lebedev-302
Angular grid pruning method      GridPruning ... 3 (G Style)
Weight generation scheme         WeightScheme... Becke
Basis function cutoff            BFCut       ...    1.0000e-10
Integration weight cutoff        WCut        ...    1.0000e-14
Grids for H and He will be reduced by one unit

# of grid points (after initial pruning)     ...  63002 (   0.0 sec)
# of grid points (after weights+screening)   ...  60764 (   0.0 sec)
nearest neighbour list constructed           ...    0.0 sec
Grid point re-assignment to atoms done       ...    0.0 sec
Grid point division into batches done        ...    0.4 sec
Reduced shell lists constructed in    0.4 sec

Total number of grid points                  ...    60764
Total number of batches                      ...      952
Average number of points per batch           ...       63
Average number of grid points per atom       ...     7596
Average number of shells per batch           ...    28.15 (27.59%)
Average number of basis functions per batch  ...    81.95 (25.29%)
Average number of large shells per batch     ...    18.98 (67.42%)
Average number of large basis fcns per batch ...    53.37 (65.12%)
Maximum spatial batch extension              ...  24.85, 20.33, 28.43 au
Average spatial batch extension              ...   0.34,  0.30,  0.34 au

Time for grid setup =    0.486 sec

------------------------------
INITIAL GUESS: MODEL POTENTIAL
------------------------------
Loading Hartree-Fock densities                     ... done
  calling /sw/apps/orca/orca_4_2_0_linux_x86-64_openmpi314/orca Au04C2_NH3_F_atom79.inp > Au04C2_NH3_F_atom79.out in order to generate an atomic fitting density for atom 0 (Au with ECP) on-the-fly... 
    atom 0 (Au), assumed electronic state with S=2: 1s2 2s2 2p6 3s2 3p6 4s2 3d10 4p6 5s2 4d10 5p6 6s1 4f14 5d10           ... done
Calculating cut-offs                               ... done
Setting up the integral package                    ... done
Initializing the effective Hamiltonian             ... done
Starting the Coulomb interaction                   ... done (   0.0 sec)
Reading the grid                                   ... done
Mapping shells                                     ... done
Starting the XC term evaluation                    ... done (   0.0 sec)
  promolecular density results
     # of electrons  =    326.007258389
     EX              =  -1470.669567088
     EC              =    -19.641671847
     EX+EC           =  -1490.311238935
Transforming the Hamiltonian                       ... done (   0.0 sec)
Diagonalizing the Hamiltonian                      ... done (   0.0 sec)
Back transforming the eigenvectors                 ... done (   0.0 sec)
Now organizing SCF variables                       ... done
                      ------------------
                      INITIAL GUESS DONE (   1.5 sec)
                      ------------------
--------------
SCF ITERATIONS
--------------
ITER       Energy         Delta-E        Max-DP      RMS-DP      [F,P]     Damp
               ***  Starting incremental Fock matrix formation  ***
  0   -598.3623884590   0.000000000000 0.20034057  0.00213053  0.5873924 0.7000
  1   -598.5668912356  -0.204502776595 0.13873176  0.00141092  0.4047649 0.7000
  2   -598.6412736645  -0.074382428842 0.09207347  0.00086960  0.2786803 0.7000
                               ***Turning on DIIS***
  3   -598.6929664265  -0.051692762014 0.06316261  0.00058618  0.1932585 0.7000
  4   -598.7315238855  -0.038557458969 0.04374672  0.00039809  0.1345889 0.7000
  5   -598.7584359775  -0.026912092018 0.10378108  0.00094034  0.0940817 0.0000
  6   -598.8209569574  -0.062520979928 0.00335843  0.00004440  0.0014441 0.0000
  7   -598.8209963993  -0.000039441919 0.00361979  0.00002729  0.0012425 0.0000
  8   -598.8210124518  -0.000016052460 0.00215627  0.00003789  0.0004907 0.0000
  9   -598.8210176357  -0.000005183929 0.00215784  0.00001729  0.0009221 0.0000
 10   -598.8210201076  -0.000002471897 0.00108476  0.00000815  0.0004062 0.0000
 11   -598.8210210618  -0.000000954170 0.00013175  0.00000222  0.0001999 0.0000
 12   -598.8210211297  -0.000000067930 0.00006183  0.00000107  0.0000793 0.0000
                 **** Energy Check signals convergence ****

               *****************************************************
               *                     SUCCESS                       *
               *           SCF CONVERGED AFTER  13 CYCLES          *
               *****************************************************


----------------
TOTAL SCF ENERGY
----------------

Total Energy       :         -598.82102114 Eh          -16294.74839 eV

Components:
Nuclear Repulsion  :          547.11403562 Eh           14887.72979 eV
Electronic Energy  :        -1145.93505677 Eh          -31182.47818 eV
One Electron Energy:        -2092.91129344 Eh          -56951.01163 eV
Two Electron Energy:          946.97623668 Eh           25768.53345 eV

Virial components:
Potential Energy   :         -838.29979863 Eh          -22811.29722 eV
Kinetic Energy     :          239.47877749 Eh            6516.54883 eV
Virial Ratio       :            3.50051811


DFT components:
N(Alpha)           :       42.000003322169 electrons
N(Beta)            :       42.000003322169 electrons
N(Total)           :       84.000006644338 electrons
E(X)               :      -55.272739414289 Eh       
E(C)               :       -3.535450968109 Eh       
E(XC)              :      -58.808190382398 Eh       
DFET-embed. en.    :        0.000000000000 Eh       

---------------
SCF CONVERGENCE
---------------

  Last Energy change         ...   -1.3968e-08  Tolerance :   1.0000e-06
  Last MAX-Density change    ...    2.4665e-05  Tolerance :   1.0000e-05
  Last RMS-Density change    ...    2.3855e-07  Tolerance :   1.0000e-06
  Last DIIS Error            ...    1.4921e-05  Tolerance :   1.0000e-06

             **** THE GBW FILE WAS UPDATED (Au04C2_NH3_F.gbw) ****
             **** DENSITY FILE WAS UPDATED (Au04C2_NH3_F.scfp) ****
             **** ENERGY FILE WAS UPDATED (Au04C2_NH3_F.en.tmp) ****
             **** THE GBW FILE WAS UPDATED (Au04C2_NH3_F.gbw) ****
             **** DENSITY FILE WAS UPDATED (Au04C2_NH3_F.scfp) ****
----------------
ORBITAL ENERGIES
----------------

  NO   OCC          E(Eh)            E(eV) 
   0   2.0000     -14.417694      -392.3254 
   1   2.0000      -4.382943      -119.2659 
   2   2.0000      -4.382592      -119.2564 
   3   2.0000      -4.382592      -119.2564 
   4   2.0000      -4.376908      -119.1017 
   5   2.0000      -2.601014       -70.7772 
   6   2.0000      -2.595649       -70.6312 
   7   2.0000      -2.595644       -70.6311 
   8   2.0000      -2.591466       -70.5174 
   9   2.0000      -2.590250       -70.4843 
  10   2.0000      -2.590237       -70.4839 
  11   2.0000      -2.588198       -70.4285 
  12   2.0000      -2.587885       -70.4199 
  13   2.0000      -2.587885       -70.4199 
  14   2.0000      -2.587617       -70.4126 
  15   2.0000      -2.582637       -70.2771 
  16   2.0000      -2.582633       -70.2770 
  17   2.0000      -1.114039       -30.3146 
  18   2.0000      -0.741184       -20.1686 
  19   2.0000      -0.733274       -19.9534 
  20   2.0000      -0.733273       -19.9534 
  21   2.0000      -0.685676       -18.6582 
  22   2.0000      -0.681641       -18.5484 
  23   2.0000      -0.681640       -18.5484 
  24   2.0000      -0.662008       -18.0142 
  25   2.0000      -0.662006       -18.0141 
  26   2.0000      -0.646056       -17.5801 
  27   2.0000      -0.641817       -17.4647 
  28   2.0000      -0.638911       -17.3856 
  29   2.0000      -0.638906       -17.3855 
  30   2.0000      -0.608337       -16.5537 
  31   2.0000      -0.608336       -16.5537 
  32   2.0000      -0.606335       -16.4992 
  33   2.0000      -0.605795       -16.4845 
  34   2.0000      -0.604587       -16.4516 
  35   2.0000      -0.604581       -16.4515 
  36   2.0000      -0.602537       -16.3959 
  37   2.0000      -0.602531       -16.3957 
  38   2.0000      -0.580448       -15.7948 
  39   2.0000      -0.579297       -15.7635 
  40   2.0000      -0.579295       -15.7634 
  41   2.0000      -0.560724       -15.2581 
  42   0.0000      -0.486612       -13.2414 
  43   0.0000      -0.486611       -13.2414 
  44   0.0000      -0.475110       -12.9284 
  45   0.0000      -0.344141        -9.3646 
  46   0.0000      -0.333493        -9.0748 
  47   0.0000      -0.333491        -9.0747 
  48   0.0000      -0.317386        -8.6365 
  49   0.0000      -0.309969        -8.4347 
  50   0.0000      -0.309967        -8.4346 
  51   0.0000      -0.239658        -6.5214 
  52   0.0000      -0.198437        -5.3997 
  53   0.0000      -0.198436        -5.3997 
  54   0.0000      -0.187918        -5.1135 
  55   0.0000      -0.187915        -5.1134 
  56   0.0000      -0.183591        -4.9958 
  57   0.0000      -0.173826        -4.7300 
  58   0.0000      -0.170942        -4.6516 
  59   0.0000      -0.170939        -4.6515 
  60   0.0000      -0.124222        -3.3802 
  61   0.0000      -0.110694        -3.0121 
  62   0.0000      -0.110685        -3.0119 
  63   0.0000      -0.107877        -2.9355 
  64   0.0000      -0.098795        -2.6884 
  65   0.0000      -0.098494        -2.6802 
  66   0.0000      -0.098493        -2.6801 
  67   0.0000      -0.082213        -2.2371 
  68   0.0000      -0.082209        -2.2370 
  69   0.0000      -0.071892        -1.9563 
  70   0.0000      -0.064857        -1.7648 
  71   0.0000      -0.064853        -1.7647 
  72   0.0000      -0.026470        -0.7203 
  73   0.0000      -0.020746        -0.5645 
  74   0.0000      -0.020743        -0.5644 
  75   0.0000      -0.007467        -0.2032 
  76   0.0000      -0.007465        -0.2031 
  77   0.0000      -0.006971        -0.1897 
  78   0.0000      -0.005227        -0.1422 
  79   0.0000       0.026096         0.7101 
  80   0.0000       0.026098         0.7102 
  81   0.0000       0.030636         0.8336 
  82   0.0000       0.030926         0.8415 
  83   0.0000       0.038355         1.0437 
  84   0.0000       0.038357         1.0438 
  85   0.0000       0.047262         1.2861 
  86   0.0000       0.047266         1.2862 
  87   0.0000       0.078300         2.1307 
  88   0.0000       0.092270         2.5108 
  89   0.0000       0.092271         2.5108 
  90   0.0000       0.103097         2.8054 
  91   0.0000       0.127276         3.4634 
  92   0.0000       0.150511         4.0956 
  93   0.0000       0.150519         4.0958 
  94   0.0000       0.165426         4.5015 
  95   0.0000       0.165431         4.5016 
  96   0.0000       0.173099         4.7103 
  97   0.0000       0.173104         4.7104 
  98   0.0000       0.183155         4.9839 
  99   0.0000       0.186390         5.0719 
 100   0.0000       0.186392         5.0720 
 101   0.0000       0.192737         5.2447 
 102   0.0000       0.218674         5.9504 
 103   0.0000       0.221892         6.0380 
 104   0.0000       0.221900         6.0382 
 105   0.0000       0.226425         6.1613 
 106   0.0000       0.226426         6.1614 
 107   0.0000       0.252035         6.8582 
 108   0.0000       0.253386         6.8950 
 109   0.0000       0.253401         6.8954 
 110   0.0000       0.266920         7.2633 
 111   0.0000       0.304865         8.2958 
 112   0.0000       0.404020        10.9939 
 113   0.0000       0.404060        10.9950 
 114   0.0000       0.404387        11.0039 
 115   0.0000       0.479384        13.0447 
 116   0.0000       0.483711        13.1624 
 117   0.0000       0.483728        13.1629 
 118   0.0000       0.528799        14.3894 
 119   0.0000       0.555597        15.1186 
 120   0.0000       0.555610        15.1189 
 121   0.0000       0.567021        15.4294 
 122   0.0000       0.567026        15.4296 
 123   0.0000       0.580720        15.8022 
 124   0.0000       0.637441        17.3457 
 125   0.0000       0.637445        17.3458 
 126   0.0000       0.637665        17.3517 
 127   0.0000       0.669056        18.2059 
 128   0.0000       0.669080        18.2066 
 129   0.0000       0.687606        18.7107 
 130   0.0000       0.728484        19.8231 
 131   0.0000       0.762194        20.7403 
 132   0.0000       0.762198        20.7405 
 133   0.0000       0.769033        20.9265 
 134   0.0000       0.771122        20.9833 
 135   0.0000       0.785693        21.3798 
 136   0.0000       0.785701        21.3800 
 137   0.0000       0.800715        21.7886 
 138   0.0000       0.808326        21.9957 
 139   0.0000       0.808331        21.9958 
 140   0.0000       0.817420        22.2431 
 141   0.0000       0.819357        22.2958 
 142   0.0000       0.838888        22.8273 
 143   0.0000       0.838905        22.8278 
 144   0.0000       0.881585        23.9891 
 145   0.0000       0.881655        23.9911 
 146   0.0000       0.887145        24.1404 
 147   0.0000       0.904094        24.6017 
 148   0.0000       0.904101        24.6018 
 149   0.0000       0.924772        25.1643 
 150   0.0000       0.924773        25.1644 
 151   0.0000       0.935177        25.4475 
 152   0.0000       0.936817        25.4921 
 153   0.0000       0.950089        25.8532 
 154   0.0000       0.950110        25.8538 
 155   0.0000       0.978658        26.6307 
 156   0.0000       0.978661        26.6307 
 157   0.0000       0.991421        26.9779 
 158   0.0000       1.025192        27.8969 
 159   0.0000       1.025207        27.8973 
 160   0.0000       1.054252        28.6876 
 161   0.0000       1.069420        29.1004 
 162   0.0000       1.072391        29.1812 
 163   0.0000       1.072404        29.1816 
 164   0.0000       1.106995        30.1229 
 165   0.0000       1.106995        30.1229 
 166   0.0000       1.116983        30.3946 
 167   0.0000       1.116987        30.3948 
 168   0.0000       1.130152        30.7530 
 169   0.0000       1.130154        30.7530 
 170   0.0000       1.171321        31.8733 
 171   0.0000       1.171328        31.8734 
 172   0.0000       1.178714        32.0744 
 173   0.0000       1.185916        32.2704 
 174   0.0000       1.190704        32.4007 
 175   0.0000       1.219563        33.1860 
 176   0.0000       1.219577        33.1864 
 177   0.0000       1.230288        33.4778 
 178   0.0000       1.244318        33.8596 
 179   0.0000       1.244345        33.8604 
 180   0.0000       1.306455        35.5504 
 181   0.0000       1.326360        36.0921 
 182   0.0000       1.326380        36.0926 
 183   0.0000       1.353067        36.8188 
 184   0.0000       1.367235        37.2044 
 185   0.0000       1.367259        37.2050 
 186   0.0000       1.467097        39.9217 
 187   0.0000       1.524723        41.4898 
 188   0.0000       1.524774        41.4912 
 189   0.0000       1.591475        43.3062 
 190   0.0000       1.592770        43.3415 
 191   0.0000       1.592784        43.3419 
 192   0.0000       1.844028        50.1786 
 193   0.0000       2.177260        59.2463 
 194   0.0000       2.274259        61.8857 
 195   0.0000       2.274280        61.8863 
 196   0.0000       2.283711        62.1429 
 197   0.0000       2.364268        64.3350 
 198   0.0000       2.416560        65.7580 
 199   0.0000       2.416579        65.7584 
 200   0.0000       2.504778        68.1585 
 201   0.0000       2.664633        72.5083 
 202   0.0000       2.664642        72.5086 
 203   0.0000       2.780150        75.6517 
 204   0.0000       2.935017        79.8659 
 205   0.0000       2.990649        81.3797 
 206   0.0000       2.990657        81.3799 
 207   0.0000       2.998523        81.5940 
 208   0.0000       3.015675        82.0607 
 209   0.0000       3.015723        82.0620 
 210   0.0000       3.023914        82.2849 
 211   0.0000       3.044384        82.8419 
 212   0.0000       3.044454        82.8438 
 213   0.0000       3.125240        85.0421 
 214   0.0000       3.149978        85.7153 
 215   0.0000       3.150047        85.7171 
 216   0.0000       3.177650        86.4683 
 217   0.0000       3.177680        86.4691 
 218   0.0000       3.178331        86.4868 
 219   0.0000       3.203185        87.1631 
 220   0.0000       3.211764        87.3965 
 221   0.0000       3.211771        87.3967 
 222   0.0000       3.232266        87.9544 
 223   0.0000       3.235587        88.0448 
 224   0.0000       3.235593        88.0450 
 225   0.0000       3.275891        89.1415 
 226   0.0000       3.343703        90.9868 
 227   0.0000       3.343974        90.9942 
 228   0.0000       3.346523        91.0635 
 229   0.0000       3.349312        91.1394 
 230   0.0000       3.359602        91.4194 
 231   0.0000       3.359738        91.4231 
 232   0.0000       3.378917        91.9450 
 233   0.0000       3.379355        91.9569 
 234   0.0000       3.428713        93.3000 
 235   0.0000       3.438363        93.5626 
 236   0.0000       3.438593        93.5689 
 237   0.0000       3.535947        96.2180 
 238   0.0000       3.543982        96.4366 
 239   0.0000       3.544422        96.4486 
 240   0.0000       3.585637        97.5701 
 241   0.0000       3.638083        98.9973 
 242   0.0000       3.638091        98.9975 
 243   0.0000       3.685967       100.3003 
 244   0.0000       3.685988       100.3008 
 245   0.0000       3.689034       100.3837 
 246   0.0000       3.690021       100.4106 
 247   0.0000       3.690175       100.4148 
 248   0.0000       3.696220       100.5793 
 249   0.0000       3.696800       100.5951 
 250   0.0000       3.697071       100.6024 
 251   0.0000       3.699780       100.6761 
 252   0.0000       3.699987       100.6818 
 253   0.0000       3.700090       100.6846 
 254   0.0000       3.701092       100.7118 
 255   0.0000       3.701620       100.7262 
 256   0.0000       3.702573       100.7521 
 257   0.0000       3.704476       100.8039 
 258   0.0000       3.707472       100.8854 
 259   0.0000       3.707510       100.8865 
 260   0.0000       3.708695       100.9187 
 261   0.0000       3.713219       101.0418 
 262   0.0000       3.713667       101.0540 
 263   0.0000       3.713794       101.0575 
 264   0.0000       3.716940       101.1431 
 265   0.0000       3.730871       101.5221 
 266   0.0000       3.730934       101.5239 
 267   0.0000       3.735279       101.6421 
 268   0.0000       3.735787       101.6559 
 269   0.0000       3.738131       101.7197 
 270   0.0000       3.738164       101.7206 
 271   0.0000       3.739556       101.7585 
 272   0.0000       3.739573       101.7589 
 273   0.0000       3.746369       101.9439 
 274   0.0000       3.746675       101.9522 
 275   0.0000       3.795220       103.2732 
 276   0.0000       3.810225       103.6815 
 277   0.0000       3.819375       103.9305 
 278   0.0000       3.819485       103.9335 
 279   0.0000       3.866081       105.2014 
 280   0.0000       3.866170       105.2038 
 281   0.0000       3.914808       106.5273 
 282   0.0000       3.914872       106.5291 
 283   0.0000       3.930492       106.9541 
 284   0.0000       4.064359       110.5968 
 285   0.0000       4.173381       113.5635 
 286   0.0000       4.173423       113.5646 
 287   0.0000       4.250077       115.6505 
 288   0.0000       4.422369       120.3388 
 289   0.0000       4.593039       124.9829 
 290   0.0000       4.593067       124.9837 
 291   0.0000       4.946105       134.5904 
 292   0.0000       4.946115       134.5906 
 293   0.0000       5.014384       136.4483 
 294   0.0000       5.236370       142.4889 
 295   0.0000       5.565163       151.4358 
 296   0.0000       5.610498       152.6694 
 297   0.0000       5.610498       152.6694 
 298   0.0000       5.731369       155.9585 
 299   0.0000       5.731482       155.9616 
 300   0.0000       6.221526       169.2963 
 301   0.0000       6.419534       174.6844 
 302   0.0000       6.419618       174.6867 
 303   0.0000      27.320851       743.4381 
 304   0.0000      27.320985       743.4418 
 305   0.0000      27.513804       748.6887 
 306   0.0000      27.513850       748.6899 
 307   0.0000      28.132015       765.5111 
 308   0.0000      28.466274       774.6067 
 309   0.0000      29.016279       789.5731 
 310   0.0000      29.016367       789.5755 
 311   0.0000      29.329443       798.0947 
 312   0.0000      29.563097       804.4528 
 313   0.0000      29.672169       807.4208 
 314   0.0000      29.672202       807.4217 
 315   0.0000      32.360012       880.5607 
 316   0.0000      43.687030      1188.7845 
 317   0.0000      44.173593      1202.0246 
 318   0.0000      44.221046      1203.3158 
 319   0.0000      44.221055      1203.3161 
 320   0.0000     204.760827      5571.8254 
 321   0.0000     204.978022      5577.7355 
 322   0.0000     204.995462      5578.2101 
 323   0.0000     204.995466      5578.2102 

                    ********************************
                    * MULLIKEN POPULATION ANALYSIS *
                    ********************************

-----------------------
MULLIKEN ATOMIC CHARGES
-----------------------
   0 Au:    0.459855
   1 Au:    0.459343
   2 Au:    0.459340
   3 Au:    0.396030
   4 N :   -0.350052
   5 H :    0.191957
   6 H :    0.191956
   7 H :    0.191571
Sum of atomic charges:    2.0000000

--------------------------------
MULLIKEN REDUCED ORBITAL CHARGES
--------------------------------
  0 Aus       :     2.641904  s :     2.641904
      pz      :     2.065172  p :     6.148988
      px      :     2.030914
      py      :     2.052902
      dz2     :     1.922489  d :     9.735762
      dxz     :     1.988034
      dyz     :     1.965597
      dx2y2   :     1.968992
      dxy     :     1.890650
      f0      :     0.001747  f :     0.013311
      f+1     :     0.000965
      f-1     :     0.002532
      f+2     :     0.001285
      f-2     :     0.001821
      f+3     :     0.002562
      f-3     :     0.002399
      g0      :     0.000016  g :     0.000180
      g+1     :     0.000007
      g-1     :     0.000029
      g+2     :     0.000021
      g-2     :     0.000021
      g+3     :     0.000019
      g-3     :     0.000009
      g+4     :     0.000027
      g-4     :     0.000031
  1 Aus       :     2.642205  s :     2.642205
      pz      :     2.065181  p :     6.149136
      px      :     2.047510
      py      :     2.036445
      dz2     :     1.922504  d :     9.735825
      dxz     :     1.971219
      dyz     :     1.982430
      dx2y2   :     1.910233
      dxy     :     1.949438
      f0      :     0.001747  f :     0.013312
      f+1     :     0.002140
      f-1     :     0.001357
      f+2     :     0.001687
      f-2     :     0.001419
      f+3     :     0.002561
      f-3     :     0.002399
      g0      :     0.000016  g :     0.000180
      g+1     :     0.000024
      g-1     :     0.000013
      g+2     :     0.000021
      g-2     :     0.000021
      g+3     :     0.000019
      g-3     :     0.000009
      g+4     :     0.000030
      g-4     :     0.000028
  2 Aus       :     2.642207  s :     2.642207
      pz      :     2.065181  p :     6.149136
      px      :     2.047510
      py      :     2.036445
      dz2     :     1.922504  d :     9.735825
      dxz     :     1.971219
      dyz     :     1.982430
      dx2y2   :     1.910233
      dxy     :     1.949439
      f0      :     0.001747  f :     0.013312
      f+1     :     0.002140
      f-1     :     0.001357
      f+2     :     0.001687
      f-2     :     0.001419
      f+3     :     0.002561
      f-3     :     0.002399
      g0      :     0.000016  g :     0.000180
      g+1     :     0.000024
      g-1     :     0.000013
      g+2     :     0.000021
      g-2     :     0.000021
      g+3     :     0.000019
      g-3     :     0.000009
      g+4     :     0.000030
      g-4     :     0.000028
  3 Aus       :     2.752820  s :     2.752820
      pz      :     2.069309  p :     6.122096
      px      :     2.026398
      py      :     2.026390
      dz2     :     1.964373  d :     9.717193
      dxz     :     1.898406
      dyz     :     1.898402
      dx2y2   :     1.978007
      dxy     :     1.978005
      f0      :     0.002314  f :     0.011705
      f+1     :     0.002402
      f-1     :     0.002402
      f+2     :     0.001893
      f-2     :     0.001893
      f+3     :     0.000409
      f-3     :     0.000391
      g0      :     0.000021  g :     0.000156
      g+1     :     0.000028
      g-1     :     0.000028
      g+2     :     0.000027
      g-2     :     0.000027
      g+3     :     0.000011
      g-3     :     0.000010
      g+4     :     0.000002
      g-4     :     0.000002
  4 N s       :     3.490654  s :     3.490654
      pz      :     1.508475  p :     3.848352
      px      :     1.170090
      py      :     1.169788
      dz2     :    -0.003797  d :     0.010385
      dxz     :     0.002313
      dyz     :     0.002304
      dx2y2   :     0.004779
      dxy     :     0.004787
      f0      :     0.000270  f :     0.000662
      f+1     :     0.000042
      f-1     :     0.000042
      f+2     :     0.000052
      f-2     :     0.000052
      f+3     :     0.000000
      f-3     :     0.000203
  5 H s       :     0.730974  s :     0.730974
      pz      :     0.030318  p :     0.073538
      px      :     0.023526
      py      :     0.019694
      dz2     :     0.000619  d :     0.003530
      dxz     :     0.000807
      dyz     :     0.000332
      dx2y2   :     0.000974
      dxy     :     0.000798
  6 H s       :     0.730975  s :     0.730975
      pz      :     0.030318  p :     0.073539
      px      :     0.023526
      py      :     0.019694
      dz2     :     0.000619  d :     0.003530
      dxz     :     0.000807
      dyz     :     0.000332
      dx2y2   :     0.000974
      dxy     :     0.000798
  7 H s       :     0.731190  s :     0.731190
      pz      :     0.030433  p :     0.073704
      px      :     0.017835
      py      :     0.025436
      dz2     :     0.000622  d :     0.003535
      dxz     :     0.000094
      dyz     :     0.001047
      dx2y2   :     0.000711
      dxy     :     0.001060


                     *******************************
                     * LOEWDIN POPULATION ANALYSIS *
                     *******************************

----------------------
LOEWDIN ATOMIC CHARGES
----------------------
   0 Au:    0.457605
   1 Au:    0.457574
   2 Au:    0.457573
   3 Au:    0.460512
   4 N :    0.455832
   5 H :   -0.096362
   6 H :   -0.096362
   7 H :   -0.096372

-------------------------------
LOEWDIN REDUCED ORBITAL CHARGES
-------------------------------
  0 Aus       :     2.403160  s :     2.403160
      pz      :     2.112888  p :     6.297840
      px      :     2.053462
      py      :     2.131490
      dz2     :     1.942439  d :     9.818448
      dxz     :     1.984519
      dyz     :     1.987391
      dx2y2   :     1.977665
      dxy     :     1.926434
      f0      :     0.002332  f :     0.022675
      f+1     :     0.001585
      f-1     :     0.005439
      f+2     :     0.002070
      f-2     :     0.002461
      f+3     :     0.005618
      f-3     :     0.003171
      g0      :     0.000024  g :     0.000271
      g+1     :     0.000010
      g-1     :     0.000044
      g+2     :     0.000035
      g-2     :     0.000033
      g+3     :     0.000025
      g-3     :     0.000011
      g+4     :     0.000036
      g-4     :     0.000054
  1 Aus       :     2.403200  s :     2.403200
      pz      :     2.112886  p :     6.297840
      px      :     2.111989
      py      :     2.072966
      dz2     :     1.942444  d :     9.818441
      dxz     :     1.986663
      dyz     :     1.985236
      dx2y2   :     1.939239
      dxy     :     1.964859
      f0      :     0.002332  f :     0.022674
      f+1     :     0.004475
      f-1     :     0.002548
      f+2     :     0.002363
      f-2     :     0.002168
      f+3     :     0.005617
      f-3     :     0.003171
      g0      :     0.000024  g :     0.000271
      g+1     :     0.000035
      g-1     :     0.000019
      g+2     :     0.000034
      g-2     :     0.000034
      g+3     :     0.000025
      g-3     :     0.000011
      g+4     :     0.000049
      g-4     :     0.000040
  2 Aus       :     2.403200  s :     2.403200
      pz      :     2.112886  p :     6.297840
      px      :     2.111989
      py      :     2.072966
      dz2     :     1.942444  d :     9.818441
      dxz     :     1.986663
      dyz     :     1.985236
      dx2y2   :     1.939239
      dxy     :     1.964859
      f0      :     0.002332  f :     0.022674
      f+1     :     0.004475
      f-1     :     0.002548
      f+2     :     0.002363
      f-2     :     0.002168
      f+3     :     0.005617
      f-3     :     0.003171
      g0      :     0.000024  g :     0.000271
      g+1     :     0.000035
      g-1     :     0.000019
      g+2     :     0.000034
      g-2     :     0.000034
      g+3     :     0.000025
      g-3     :     0.000011
      g+4     :     0.000049
      g-4     :     0.000040
  3 Aus       :     2.479156  s :     2.479156
      pz      :     2.143524  p :     6.237410
      px      :     2.046944
      py      :     2.046942
      dz2     :     1.982060  d :     9.802673
      dxz     :     1.927989
      dyz     :     1.927989
      dx2y2   :     1.982319
      dxy     :     1.982317
      f0      :     0.003063  f :     0.020019
      f+1     :     0.004932
      f-1     :     0.004932
      f+2     :     0.002979
      f-2     :     0.002979
      f+3     :     0.000610
      f-3     :     0.000524
      g0      :     0.000024  g :     0.000230
      g+1     :     0.000045
      g-1     :     0.000045
      g+2     :     0.000040
      g-2     :     0.000040
      g+3     :     0.000017
      g-3     :     0.000014
      g+4     :     0.000002
      g-4     :     0.000002
  4 N s       :     2.911063  s :     2.911063
      pz      :     1.240371  p :     3.451527
      px      :     1.105584
      py      :     1.105572
      dz2     :     0.036375  d :     0.173217
      dxz     :     0.032480
      dyz     :     0.032482
      dx2y2   :     0.035940
      dxy     :     0.035939
      f0      :     0.000679  f :     0.008362
      f+1     :     0.000014
      f-1     :     0.000014
      f+2     :     0.002734
      f-2     :     0.002734
      f+3     :     0.000000
      f-3     :     0.002186
  5 H s       :     0.648670  s :     0.648670
      pz      :     0.148069  p :     0.392264
      px      :     0.138181
      py      :     0.106015
      dz2     :     0.008467  d :     0.055428
      dxz     :     0.014546
      dyz     :     0.006335
      dx2y2   :     0.013596
      dxy     :     0.012483
  6 H s       :     0.648670  s :     0.648670
      pz      :     0.148069  p :     0.392264
      px      :     0.138181
      py      :     0.106015
      dz2     :     0.008467  d :     0.055428
      dxz     :     0.014546
      dyz     :     0.006335
      dx2y2   :     0.013596
      dxy     :     0.012483
  7 H s       :     0.648674  s :     0.648674
      pz      :     0.148075  p :     0.392270
      px      :     0.089932
      py      :     0.154264
      dz2     :     0.008467  d :     0.055427
      dxz     :     0.002230
      dyz     :     0.018652
      dx2y2   :     0.011926
      dxy     :     0.014152


                      *****************************
                      * MAYER POPULATION ANALYSIS *
                      *****************************

  NA   - Mulliken gross atomic population
  ZA   - Total nuclear charge
  QA   - Mulliken gross atomic charge
  VA   - Mayer's total valence
  BVA  - Mayer's bonded valence
  FA   - Mayer's free valence

  ATOM       NA         ZA         QA         VA         BVA        FA
  0 Au    18.5401    19.0000     0.4599     1.5289     1.5289     0.0000
  1 Au    18.5407    19.0000     0.4593     1.5294     1.5294    -0.0000
  2 Au    18.5407    19.0000     0.4593     1.5294     1.5294    -0.0000
  3 Au    18.6040    19.0000     0.3960     1.5664     1.5664     0.0000
  4 N      7.3501     7.0000    -0.3501     3.2868     3.2868     0.0000
  5 H      0.8080     1.0000     0.1920     1.0374     1.0374     0.0000
  6 H      0.8080     1.0000     0.1920     1.0374     1.0374     0.0000
  7 H      0.8084     1.0000     0.1916     1.0380     1.0380     0.0000

  Mayer bond orders larger than 0.100000
B(  0-Au,  1-Au) :   0.4807 B(  0-Au,  2-Au) :   0.4807 B(  0-Au,  3-Au) :   0.4865 
B(  1-Au,  2-Au) :   0.4810 B(  1-Au,  3-Au) :   0.4866 B(  2-Au,  3-Au) :   0.4866 
B(  3-Au,  4-N ) :   0.1003 B(  4-N ,  5-H ) :   0.9908 B(  4-N ,  6-H ) :   0.9908 
B(  4-N ,  7-H ) :   0.9915 

-------
TIMINGS
-------

Total SCF time: 0 days 0 hours 0 min 5 sec 

Total time                  ....       5.810 sec
Sum of individual times     ....       5.606 sec  ( 96.5%)

Fock matrix formation       ....       3.661 sec  ( 63.0%)
  Split-RI-J                ....       1.684 sec  ( 46.0% of F)
  XC integration            ....       1.881 sec  ( 51.4% of F)
    Basis function eval.    ....       0.180 sec  (  9.6% of XC)
    Density eval.           ....       0.374 sec  ( 19.9% of XC)
    XC-Functional eval.     ....       0.068 sec  (  3.6% of XC)
    XC-Potential eval.      ....       0.629 sec  ( 33.4% of XC)
Diagonalization             ....       0.239 sec  (  4.1%)
Density matrix formation    ....       0.024 sec  (  0.4%)
Population analysis         ....       0.017 sec  (  0.3%)
Initial guess               ....       1.047 sec  ( 18.0%)
Orbital Transformation      ....       0.000 sec  (  0.0%)
Orbital Orthonormalization  ....       0.000 sec  (  0.0%)
DIIS solution               ....       0.131 sec  (  2.3%)
Grid generation             ....       0.486 sec  (  8.4%)


-------------------------------------------------------------------------------
                          DFT DISPERSION CORRECTION                            
                                                                               
                              DFTD3 V3.1  Rev 1                                
                          USING Becke-Johnson damping                          
-------------------------------------------------------------------------------
The TPSS functional is recognized
Active option DFTDOPT                   ...         4   

molecular C6(AA) [au] = 6454.274810 


            DFT-D V3
 parameters
 s6 scaling factor         :     1.0000 
 a1 scaling factor         :     0.4535 
 s8 scaling factor         :     1.9435 
 a2 scaling factor         :     4.4752 
 ad hoc parameters k1-k3   :    16.0000     1.3333    -4.0000 

 Edisp/kcal,au: -11.594350091460  -0.018476771003 
 E6   /kcal   :  -3.933162612 
 E8   /kcal   :  -7.661187479 
 % E8         :  66.076903138 

-------------------------   ----------------
Dispersion correction           -0.018476771
-------------------------   ----------------


-------------------------   --------------------
FINAL SINGLE POINT ENERGY      -598.839497914680
-------------------------   --------------------


                            ***************************************
                            *     ORCA property calculations      *
                            ***************************************

                                    ---------------------
                                    Active property flags
                                    ---------------------
   (+) Dipole Moment


------------------------------------------------------------------------------
                       ORCA ELECTRIC PROPERTIES CALCULATION
------------------------------------------------------------------------------

Dipole Moment Calculation                       ... on
Quadrupole Moment Calculation                   ... off
Polarizability Calculation                      ... off
GBWName                                         ... Au04C2_NH3_F.gbw
Electron density file                           ... Au04C2_NH3_F.scfp
The origin for moment calculation is the CENTER OF MASS  = ( 0.000000, -0.000000  0.064134)

-------------
DIPOLE MOMENT
-------------
                                X             Y             Z
Electronic contribution:     -0.00000      -0.00001      51.48518
Nuclear contribution   :      0.00000       0.00000     -53.58194
                        -----------------------------------------
Total Dipole Moment    :     -0.00000      -0.00001      -2.09677
                        -----------------------------------------
Magnitude (a.u.)       :      2.09677
Magnitude (Debye)      :      5.32956



--------------------
Rotational spectrum 
--------------------
 
Rotational constants in cm-1:     0.011879     0.010264     0.010264 
Rotational constants in MHz :   356.111583   307.700803   307.700796 

 Dipole components along the rotational axes: 
x,y,z [a.u.] :     2.096766    -0.000000     0.000006 
x,y,z [Debye]:     5.329557    -0.000000     0.000015 

 

Timings for individual modules:

Sum of individual times         ...        8.382 sec (=   0.140 min)
GTO integral calculation        ...        2.252 sec (=   0.038 min)  26.9 %
SCF iterations                  ...        6.130 sec (=   0.102 min)  73.1 %
                             ****ORCA TERMINATED NORMALLY****
TOTAL RUN TIME: 0 days 0 hours 0 minutes 8 seconds 892 msec
