
                                 *****************
                                 * O   R   C   A *
                                 *****************

           --- An Ab Initio, DFT and Semiempirical electronic structure package ---

                  #######################################################
                  #                        -***-                        #
                  #          Department of theory and spectroscopy      #
                  #               Directorship: Frank Neese             #
                  #        Max Planck Institute fuer Kohlenforschung    #
                  #                Kaiser Wilhelm Platz 1               #
                  #                 D-45470 Muelheim/Ruhr               #
                  #                      Germany                        #
                  #                                                     #
                  #                  All rights reserved                #
                  #                        -***-                        #
                  #######################################################


                         Program Version 4.2.0 -  RELEASE  -


 With contributions from (in alphabetic order):
   Daniel Aravena         : Magnetic Suceptibility
   Michael Atanasov       : Ab Initio Ligand Field Theory (pilot matlab implementation)
   Alexander A. Auer      : GIAO ZORA, VPT2
   Ute Becker             : Parallelization
   Giovanni Bistoni       : ED, misc. LED, open-shell LED, HFLED
   Martin Brehm           : Molecular dynamics
   Dmytro Bykov           : SCF Hessian
   Vijay G. Chilkuri      : MRCI spin determinant printing, contributions to CSF-ICE
   Dipayan Datta          : RHF DLPNO-CCSD density
   Achintya Kumar Dutta   : EOM-CC, STEOM-CC
   Dmitry Ganyushin       : Spin-Orbit,Spin-Spin,Magnetic field MRCI
   Miquel Garcia          : C-PCM Hessian, Gaussian charge scheme
   Yang Guo               : DLPNO-NEVPT2, CIM, IAO-localization
   Andreas Hansen         : Spin unrestricted coupled pair/coupled cluster methods
   Benjamin Helmich-Paris : CASSCF linear response (MC-RPA)
   Lee Huntington         : MR-EOM, pCC
   Robert Izsak           : Overlap fitted RIJCOSX, COSX-SCS-MP3, EOM
   Christian Kollmar      : KDIIS, OOCD, Brueckner-CCSD(T), CCSD density
   Simone Kossmann        : Meta GGA functionals, TD-DFT gradient, OOMP2, MP2 Hessian
   Martin Krupicka        : AUTO-CI
   Lucas Lang             : DCDCAS
   Dagmar Lenk            : GEPOL surface, SMD
   Dimitrios Liakos       : Extrapolation schemes; Compound Job, initial MDCI parallelization
   Dimitrios Manganas     : Further ROCIS development; embedding schemes
   Dimitrios Pantazis     : SARC Basis sets
   Taras Petrenko         : DFT Hessian,TD-DFT gradient, ASA, ECA, R-Raman, ABS, FL, XAS/XES, NRVS
   Peter Pinski           : DLPNO-MP2, DLPNO-MP2 Gradient
   Christoph Reimann      : Effective Core Potentials
   Marius Retegan         : Local ZFS, SOC
   Christoph Riplinger    : Optimizer, TS searches, QM/MM, DLPNO-CCSD(T), (RO)-DLPNO pert. Triples
   Tobias Risthaus        : Range-separated hybrids, TD-DFT gradient, RPA, STAB
   Michael Roemelt        : Original ROCIS implementation
   Masaaki Saitow         : Open-shell DLPNO-CCSD energy and density
   Barbara Sandhoefer     : DKH picture change effects
   Avijit Sen             : IP-ROCIS
   Kantharuban Sivalingam : CASSCF convergence, NEVPT2, FIC-MRCI
   Bernardo de Souza      : ESD, SOC TD-DFT
   Georgi Stoychev        : AutoAux, RI-MP2 NMR
   Willem Van den Heuvel  : Paramagnetic NMR
   Boris Wezisla          : Elementary symmetry handling
   Frank Wennmohs         : Technical directorship


 We gratefully acknowledge several colleagues who have allowed us to
 interface, adapt or use parts of their codes:
   Stefan Grimme, W. Hujo, H. Kruse,             : VdW corrections, initial TS optimization,
                  C. Bannwarth                     DFT functionals, gCP, sTDA/sTD-DF
   Ed Valeev, F. Pavosevic, A. Kumar             : LibInt (2-el integral package), F12 methods
   Garnet Chan, S. Sharma, J. Yang, R. Olivares  : DMRG
   Ulf Ekstrom                                   : XCFun DFT Library
   Mihaly Kallay                                 : mrcc  (arbitrary order and MRCC methods)
   Andreas Klamt, Michael Diedenhofen            : otool_cosmo (COSMO solvation model)
   Jiri Pittner, Ondrej Demel                    : Mk-CCSD
   Frank Weinhold                                : gennbo (NPA and NBO analysis)
   Christopher J. Cramer and Donald G. Truhlar   : smd solvation model
   Lars Goerigk                                  : TD-DFT with DH, B97 family of functionals
   V. Asgeirsson, H. Jonsson                     : NEB implementation
   FAccTs GmbH                                   : IRC, NEB, NEB-TS, Multilevel, MM, QM/MM, CI optimization
   S Lehtola, MJT Oliveira, MAL Marques          : LibXC Library


 Your calculation uses the libint2 library for the computation of 2-el integrals
 For citations please refer to: http://libint.valeyev.net

 Your ORCA version has been built with support for libXC version: 4.2.3
 For citations please refer to: https://tddft.org/programs/libxc/

 This ORCA versions uses:
   CBLAS   interface :  Fast vector & matrix operations
   LAPACKE interface :  Fast linear algebra routines
   SCALAPACK package :  Parallel linear algebra routines


Your calculation utilizes the atom-pairwise dispersion correction
with the Becke-Johnson damping scheme (D3BJ)
Cite in your paper:
S.Grimme, S.Ehrlich, L.Goerigk, J Comput Chem, (2011), 32, 1456–1465 
S.Grimme, J.Antony, S.Ehrlich and H.Krieg, J.Chem.Phys., 132, (2010), 154104 
   

----- Orbital basis set information -----
Your calculation utilizes the basis: def2-TZVPPD
   F. Weigend and R. Ahlrichs, Phys. Chem. Chem. Phys. 7, 3297 (2005).
   D. Rappoport and F. Furche, J. Chem. Phys. 133 134105 (2010).

----- AuxJ basis set information -----
Your calculation utilizes the auxiliary basis: def2/J
   F. Weigend, Phys. Chem. Chem. Phys. 8, 1057 (2006).

cite the ECPs for Au [Def2-ECP] as follows:
Ce-Yb(ecp-28): M. Dolg, H. Stoll, H.Preuss, J. Chem. Phys., 1989, 90, 1730-1734.
Y-Cd(ecp-28), Hf-Hg(ecp-46): D. Andrae,U. Haeussermann, M. Dolg, H. Stoll, H. Preuss, Theor. Chim. Acta, 1990, 77, 123-141.
In-Sb(ecp-28), Tl-Bi(ecp-46): B. Metz, H. Stoll, M. Dolg, J. Chem. Phys., 2000, 113, 2563-2569.
Te-Xe(ecp-28), Po-Rn(ecp-46): K. A. Peterson, D. Figgen, E. Goll, H. Stoll, M. Dolg, J. Chem. Phys., 2003, 119, 11113-11123.
Rb(ecp-28), Cs(ecp-46): T. Leininger, A. Nicklass, W. Kuechle, H. Stoll, M. Dolg, A. Bergner, Chem. Phys. Lett., 1996, 255, 274-280.
Sr(ecp-28), Ba(ecp-46): M. Kaupp, P. V. Schleyer, H. Stoll and H. Preuss, J. Chem. Phys., 1991, 94, 1360-1366.
La(ecp-46): M. Dolg, H. Stoll, A. Savin, H. Preuss, Theor. Chim. Acta, 1989, 75, 173-194.
Lu(ecp-28): X. Cao, M. Dolg, J. Chem. Phys., 2001, 115, 7348-7355.

ECP parameters for Au [Def2-ECP] have been obtained from:
TURBOMOLE (7.0.2)

================================================================================
                                        WARNINGS
                       Please study these warnings very carefully!
================================================================================


WARNING: your system is open-shell and RHF/RKS was chosen
  ===> : WILL SWITCH to UHF/UKS


INFO   : the flag for use of LIBINT has been found!

================================================================================
                                       INPUT FILE
================================================================================
NAME = Au04C2_H_F.in
|  1> #
|  2> # Au04C2_H_F TPSS-D3BJ/Def2-TZVPPD
|  3> #
|  4> ! tpss d3bj def2-tzvppd def2/j grid4 nofinalgrid
|  5> 
|  6> *xyz 2 2
|  7> Au       0.000000    1.567068   -0.568281 
|  8> Au       1.357120   -0.783534   -0.568281 
|  9> Au      -1.357120   -0.783534   -0.568281 
| 10> Au       0.000000    0.000000    1.725922 
| 11> H        0.000000    0.000000   -1.665144 
| 12> *
| 13> 
| 14> %maxcore 5000
| 15> 
| 16> %pal
| 17> nprocs = 24
| 18> end
| 19> 
| 20> 
| 21>                          ****END OF INPUT****
================================================================================

                       ****************************
                       * Single Point Calculation *
                       ****************************

---------------------------------
CARTESIAN COORDINATES (ANGSTROEM)
---------------------------------
  Au     0.000000    1.567068   -0.568281
  Au     1.357120   -0.783534   -0.568281
  Au    -1.357120   -0.783534   -0.568281
  Au     0.000000    0.000000    1.725922
  H      0.000000    0.000000   -1.665144

----------------------------
CARTESIAN COORDINATES (A.U.)
----------------------------
  NO LB      ZA    FRAG     MASS         X           Y           Z
   0 Au   19.0000*   0   196.966    0.000000    2.961329   -1.073895
   1 Au   19.0000*   0   196.966    2.564585   -1.480665   -1.073895
   2 Au   19.0000*   0   196.966   -2.564585   -1.480665   -1.073895
   3 Au   19.0000*   0   196.966    0.000000    0.000000    3.261520
   4 H     1.0000    0     1.008    0.000000    0.000000   -3.146666
* core charge reduced due to ECP

--------------------------------
INTERNAL COORDINATES (ANGSTROEM)
--------------------------------
 Au     0   0   0     0.000000000000     0.00000000     0.00000000
 Au     1   0   0     2.714241046187     0.00000000     0.00000000
 Au     2   1   0     2.714240000000    60.00001275     0.00000000
 Au     2   1   3     2.778321008949    60.76008000   288.85645343
 H      2   1   3     1.912801261063    44.80627518    54.46024256

---------------------------
INTERNAL COORDINATES (A.U.)
---------------------------
 Au     0   0   0     0.000000000000     0.00000000     0.00000000
 Au     1   0   0     5.129172238741     0.00000000     0.00000000
 Au     2   1   0     5.129170261734    60.00001275     0.00000000
 Au     2   1   3     5.250265819033    60.76008000   288.85645343
 H      2   1   3     3.614670532029    44.80627518    54.46024256

---------------------
BASIS SET INFORMATION
---------------------
There are 2 groups of distinct atoms

 Group   1 Type Au  : 8s8p6d2f1g contracted to 6s5p3d2f1g pattern {311111/41111/411/11/1}
 Group   2 Type H   : 5s3p1d contracted to 3s3p1d pattern {311/111/1}

Atom   0Au   basis set group =>   1
Atom   1Au   basis set group =>   1
Atom   2Au   basis set group =>   1
Atom   3Au   basis set group =>   1
Atom   4H    basis set group =>   2
---------------------------------
AUXILIARY/J BASIS SET INFORMATION
---------------------------------
There are 2 groups of distinct atoms

 Group   1 Type Au  : 11s5p5d3f3g contracted to 8s5p5d2f3g pattern {41111111/11111/11111/21/111}
 Group   2 Type H   : 5s2p1d contracted to 3s1p1d pattern {311/2/1}

Atom   0Au   basis set group =>   1
Atom   1Au   basis set group =>   1
Atom   2Au   basis set group =>   1
Atom   3Au   basis set group =>   1
Atom   4H    basis set group =>   2
-------------------------
ECP PARAMETER INFORMATION
-------------------------

 Group 1, Type Au ECP Def2-ECP (replacing 60 core electrons, lmax=3)

Atom   0Au   ECP group =>   1
Atom   1Au   ECP group =>   1
Atom   2Au   ECP group =>   1
Atom   3Au   ECP group =>   1



           ************************************************************
           *        Program running with 24 parallel MPI-processes    *
           *              working on a common directory               *
           ************************************************************
------------------------------------------------------------------------------
                           ORCA GTO INTEGRAL CALCULATION
                           -- RI-GTO INTEGRALS CHOSEN --
------------------------------------------------------------------------------

                         BASIS SET STATISTICS AND STARTUP INFO

Gaussian basis set:
 # of primitive gaussian shells          ...  109
 # of primitive gaussian functions       ...  359
 # of contracted shells                  ...   75
 # of contracted basis functions         ...  253
 Highest angular momentum                ...    4
 Maximum contraction depth               ...    4
Auxiliary gaussian basis set:
 # of primitive gaussian shells          ...  116
 # of primitive gaussian functions       ...  412
 # of contracted shells                  ...   97
 # of contracted aux-basis functions     ...  367
 Highest angular momentum                ...    4
 Maximum contraction depth               ...    4
Ratio of auxiliary to basis functions    ...  1.45
Integral package used                  ... LIBINT
 One Electron integrals                  
   ECP integrals                         ... done
 Ordering auxiliary basis shells         ... done
 Integral threshhold             Thresh  ...  1.000e-10
 Primitive cut-off               TCut    ...  1.000e-11
 Pre-screening matrix                    ... done
 Shell pair data                         ... 
 Ordering of the shell pairs             ... done (   0.000 sec) 2760 of 2850 pairs
 Determination of significant pairs      ... done (   0.000 sec)
 Creation of shell pair data             ... done (   0.000 sec)
 Storage of shell pair data              ... done (   0.003 sec)
 Shell pair data done in (   0.003 sec)
 Computing two index integrals           ... done
 Cholesky decomposition of the V-matrix  ... done


Timings:
 Total evaluation time                   ...   1.264 sec (  0.021 min)
 One electron matrix time                ...   1.034 sec (  0.017 min) = 81.8%
 Schwartz matrix evaluation time         ...   0.187 sec (  0.003 min) = 14.8%
 Two index repulsion integral time       ...   0.002 sec (  0.000 min) =  0.2%
 Cholesky decomposition of V             ...   0.002 sec (  0.000 min) =  0.2%
 Three index repulsion integral time     ...   0.000 sec (  0.000 min) =  0.0%



           ************************************************************
           *        Program running with 24 parallel MPI-processes    *
           *              working on a common directory               *
           ************************************************************
-------------------------------------------------------------------------------
                                 ORCA SCF
-------------------------------------------------------------------------------

------------
SCF SETTINGS
------------
Hamiltonian:
 Density Functional     Method          .... DFT(GTOs)
 Exchange Functional    Exchange        .... TPSS
 Correlation Functional Correlation     .... TPSS
 LDA part of GGA corr.  LDAOpt          .... PW91-LDA
 Gradients option       PostSCFGGA      .... off
   Density functional embedding theory  .... OFF
   NL short-range parameter             ....  5.000000
 RI-approximation to the Coulomb term is turned on
   Number of auxiliary basis functions  .... 367


General Settings:
 Integral files         IntName         .... Au04C2_H_F
 Hartree-Fock type      HFTyp           .... UHF
 Total Charge           Charge          ....    2
 Multiplicity           Mult            ....    2
 Number of Electrons    NEL             ....   75
 Basis Dimension        Dim             ....  253
 Nuclear Repulsion      ENuc            ....    436.1544979593 Eh

Convergence Acceleration:
 DIIS                   CNVDIIS         .... on
   Start iteration      DIISMaxIt       ....    12
   Startup error        DIISStart       ....  0.200000
   # of expansion vecs  DIISMaxEq       ....     5
   Bias factor          DIISBfac        ....   1.050
   Max. coefficient     DIISMaxC        ....  10.000
 Newton-Raphson         CNVNR           .... off
 SOSCF                  CNVSOSCF        .... off
 Level Shifting         CNVShift        .... on
   Level shift para.    LevelShift      ....    0.2500
   Turn off err/grad.   ShiftErr        ....    0.0010
 Zerner damping         CNVZerner       .... off
 Static damping         CNVDamp         .... on
   Fraction old density DampFac         ....    0.7000
   Max. Damping (<1)    DampMax         ....    0.9800
   Min. Damping (>=0)   DampMin         ....    0.0000
   Turn off err/grad.   DampErr         ....    0.1000
 Fernandez-Rico         CNVRico         .... off

SCF Procedure:
 Maximum # iterations   MaxIter         ....   125
 SCF integral mode      SCFMode         .... Direct
   Integral package                     .... LIBINT
 Reset frequency        DirectResetFreq ....    20
 Integral Threshold     Thresh          ....  1.000e-10 Eh
 Primitive CutOff       TCut            ....  1.000e-11 Eh

Convergence Tolerance:
 Convergence Check Mode ConvCheckMode   .... Total+1el-Energy
 Convergence forced     ConvForced      .... 0
 Energy Change          TolE            ....  1.000e-06 Eh
 1-El. energy change                    ....  1.000e-03 Eh
 DIIS Error             TolErr          ....  1.000e-06


Diagonalization of the overlap matrix:
Smallest eigenvalue                        ... 9.342e-04
Time for diagonalization                   ...    0.012 sec
Threshold for overlap eigenvalues          ... 1.000e-08
Number of eigenvalues below threshold      ... 0
Time for construction of square roots      ...    0.008 sec
Total time needed                          ...    0.020 sec

-------------------
DFT GRID GENERATION
-------------------

General Integration Accuracy     IntAcc      ...  4.670
Radial Grid Type                 RadialGrid  ... Gauss-Chebyshev
Angular Grid (max. acc.)         AngularGrid ... Lebedev-302
Angular grid pruning method      GridPruning ... 3 (G Style)
Weight generation scheme         WeightScheme... Becke
Basis function cutoff            BFCut       ...    1.0000e-10
Integration weight cutoff        WCut        ...    1.0000e-14
Grids for H and He will be reduced by one unit

# of grid points (after initial pruning)     ...  50002 (   0.0 sec)
# of grid points (after weights+screening)   ...  48863 (   0.0 sec)
nearest neighbour list constructed           ...    0.0 sec
Grid point re-assignment to atoms done       ...    0.0 sec
Grid point division into batches done        ...    0.4 sec
Reduced shell lists constructed in    0.4 sec

Total number of grid points                  ...    48863
Total number of batches                      ...      766
Average number of points per batch           ...       63
Average number of grid points per atom       ...     9773
Average number of shells per batch           ...    13.88 (18.51%)
Average number of basis functions per batch  ...    38.79 (15.33%)
Average number of large shells per batch     ...     9.42 (67.90%)
Average number of large basis fcns per batch ...    24.45 (63.05%)
Maximum spatial batch extension              ...  27.71, 26.50, 27.27 au
Average spatial batch extension              ...   0.50,  0.43,  0.48 au

Time for grid setup =    0.439 sec

------------------------------
INITIAL GUESS: MODEL POTENTIAL
------------------------------
Loading Hartree-Fock densities                     ... done
  calling /sw/apps/orca/orca_4_2_0_linux_x86-64_openmpi314/orca Au04C2_H_F_atom79.inp > Au04C2_H_F_atom79.out in order to generate an atomic fitting density for atom 0 (Au with ECP) on-the-fly... 
    atom 0 (Au), assumed electronic state with S=2: 1s2 2s2 2p6 3s2 3p6 4s2 3d10 4p6 5s2 4d10 5p6 6s1 4f14 5d10           ... done
Calculating cut-offs                               ... done
Setting up the integral package                    ... done
Initializing the effective Hamiltonian             ... done
Starting the Coulomb interaction                   ... done (   0.0 sec)
Reading the grid                                   ... done
Mapping shells                                     ... done
Starting the XC term evaluation                    ... done (   0.0 sec)
  promolecular density results
     # of electrons  =    317.008731720
     EX              =  -1463.573802753
     EC              =    -19.364118732
     EX+EC           =  -1482.937921485
Transforming the Hamiltonian                       ... done (   0.0 sec)
Diagonalizing the Hamiltonian                      ... done (   0.0 sec)
Back transforming the eigenvectors                 ... done (   0.0 sec)
Now organizing SCF variables                       ... done
                      ------------------
                      INITIAL GUESS DONE (   1.5 sec)
                      ------------------
--------------
SCF ITERATIONS
--------------
ITER       Energy         Delta-E        Max-DP      RMS-DP      [F,P]     Damp
               ***  Starting incremental Fock matrix formation  ***
  0   -542.3987134176   0.000000000000 0.12721828  0.00131575  0.5858104 0.7000
  1   -542.5352191801  -0.136505762474 0.08139136  0.00088625  0.4059986 0.7000
  2   -542.5924140709  -0.057194890751 0.04790766  0.00056198  0.2805999 0.7000
                               ***Turning on DIIS***
  3   -542.6333114917  -0.040897420823 0.03380979  0.00038729  0.1946222 0.7000
  4   -542.6631543199  -0.029842828215 0.02560575  0.00026873  0.1353329 0.7000
  5   -542.6838442219  -0.020689902046 0.05626908  0.00063167  0.0947608 0.0000
  6   -542.7320871742  -0.048242952291 0.00745720  0.00003998  0.0014005 0.0000
  7   -542.7321377767  -0.000050602462 0.00284272  0.00002372  0.0012549 0.0000
  8   -542.7321694909  -0.000031714160 0.01029933  0.00006412  0.0004012 0.0000
  9   -542.7321975354  -0.000028044550 0.00066265  0.00000822  0.0004375 0.0000
 10   -542.7321987315  -0.000001196107 0.00100790  0.00000583  0.0002772 0.0000
 11   -542.7321993621  -0.000000630572 0.00009031  0.00000155  0.0001088 0.0000
                 **** Energy Check signals convergence ****

               *****************************************************
               *                     SUCCESS                       *
               *           SCF CONVERGED AFTER  12 CYCLES          *
               *****************************************************


----------------
TOTAL SCF ENERGY
----------------

Total Energy       :         -542.73219947 Eh          -14768.49396 eV

Components:
Nuclear Repulsion  :          436.15449796 Eh           11868.36727 eV
Electronic Energy  :         -978.88669743 Eh          -26636.86123 eV
One Electron Energy:        -1795.53868141 Eh          -48859.09147 eV
Two Electron Energy:          816.65198397 Eh           22222.23024 eV

Virial components:
Potential Energy   :         -726.33736971 Eh          -19764.64464 eV
Kinetic Energy     :          183.60517023 Eh            4996.15068 eV
Virial Ratio       :            3.95597449


DFT components:
N(Alpha)           :       37.999985846292 electrons
N(Beta)            :       36.999985124552 electrons
N(Total)           :       74.999970970844 electrons
E(X)               :      -47.846637832841 Eh       
E(C)               :       -3.243650710519 Eh       
E(XC)              :      -51.090288543360 Eh       
DFET-embed. en.    :        0.000000000000 Eh       

---------------
SCF CONVERGENCE
---------------

  Last Energy change         ...   -1.1290e-07  Tolerance :   1.0000e-06
  Last MAX-Density change    ...    1.2933e-04  Tolerance :   1.0000e-05
  Last RMS-Density change    ...    9.4337e-07  Tolerance :   1.0000e-06
  Last DIIS Error            ...    4.4744e-05  Tolerance :   1.0000e-06

             **** THE GBW FILE WAS UPDATED (Au04C2_H_F.gbw) ****
             **** DENSITY FILE WAS UPDATED (Au04C2_H_F.scfp) ****
             **** ENERGY FILE WAS UPDATED (Au04C2_H_F.en.tmp) ****
----------------------
UHF SPIN CONTAMINATION
----------------------

Warning: in a DFT calculation there is little theoretical justification to 
         calculate <S**2> as in Hartree-Fock theory. We will do it anyways
         but you should keep in mind that the values have only limited relevance

Expectation value of <S**2>     :     0.753143
Ideal value S*(S+1) for S=0.5   :     0.750000
Deviation                       :     0.003143

             **** THE GBW FILE WAS UPDATED (Au04C2_H_F.gbw) ****
             **** DENSITY FILE WAS UPDATED (Au04C2_H_F.scfp) ****
----------------
ORBITAL ENERGIES
----------------
                 SPIN UP ORBITALS
  NO   OCC          E(Eh)            E(eV) 
   0   1.0000      -4.432090      -120.6033 
   1   1.0000      -4.431797      -120.5953 
   2   1.0000      -4.431796      -120.5953 
   3   1.0000      -4.398665      -119.6938 
   4   1.0000      -2.650758       -72.1308 
   5   1.0000      -2.645827       -71.9966 
   6   1.0000      -2.645826       -71.9966 
   7   1.0000      -2.638933       -71.8090 
   8   1.0000      -2.638160       -71.7880 
   9   1.0000      -2.638157       -71.7879 
  10   1.0000      -2.636866       -71.7528 
  11   1.0000      -2.636860       -71.7526 
  12   1.0000      -2.635097       -71.7046 
  13   1.0000      -2.611663       -71.0670 
  14   1.0000      -2.603650       -70.8489 
  15   1.0000      -2.603648       -70.8489 
  16   1.0000      -0.844250       -22.9732 
  17   1.0000      -0.760915       -20.7055 
  18   1.0000      -0.720433       -19.6040 
  19   1.0000      -0.720431       -19.6039 
  20   1.0000      -0.700057       -19.0495 
  21   1.0000      -0.700055       -19.0495 
  22   1.0000      -0.696686       -18.9578 
  23   1.0000      -0.682387       -18.5687 
  24   1.0000      -0.678519       -18.4634 
  25   1.0000      -0.678518       -18.4634 
  26   1.0000      -0.658722       -17.9247 
  27   1.0000      -0.658712       -17.9245 
  28   1.0000      -0.654193       -17.8015 
  29   1.0000      -0.654192       -17.8015 
  30   1.0000      -0.651544       -17.7294 
  31   1.0000      -0.632062       -17.1993 
  32   1.0000      -0.629409       -17.1271 
  33   1.0000      -0.629401       -17.1269 
  34   1.0000      -0.629057       -17.1175 
  35   1.0000      -0.617617       -16.8062 
  36   1.0000      -0.617614       -16.8061 
  37   1.0000      -0.549840       -14.9619 
  38   0.0000      -0.525724       -14.3057 
  39   0.0000      -0.525723       -14.3056 
  40   0.0000      -0.453431       -12.3385 
  41   0.0000      -0.372267       -10.1299 
  42   0.0000      -0.361780        -9.8445 
  43   0.0000      -0.361777        -9.8444 
  44   0.0000      -0.345956        -9.4139 
  45   0.0000      -0.345953        -9.4139 
  46   0.0000      -0.230047        -6.2599 
  47   0.0000      -0.215727        -5.8702 
  48   0.0000      -0.215263        -5.8576 
  49   0.0000      -0.215262        -5.8576 
  50   0.0000      -0.208852        -5.6831 
  51   0.0000      -0.208851        -5.6831 
  52   0.0000      -0.207879        -5.6567 
  53   0.0000      -0.163735        -4.4555 
  54   0.0000      -0.134558        -3.6615 
  55   0.0000      -0.120930        -3.2907 
  56   0.0000      -0.120929        -3.2906 
  57   0.0000      -0.115533        -3.1438 
  58   0.0000      -0.115532        -3.1438 
  59   0.0000      -0.111561        -3.0357 
  60   0.0000      -0.081369        -2.2142 
  61   0.0000      -0.081363        -2.2140 
  62   0.0000      -0.051200        -1.3932 
  63   0.0000      -0.050747        -1.3809 
  64   0.0000      -0.050747        -1.3809 
  65   0.0000      -0.035152        -0.9565 
  66   0.0000      -0.035150        -0.9565 
  67   0.0000      -0.030943        -0.8420 
  68   0.0000      -0.028471        -0.7747 
  69   0.0000      -0.022321        -0.6074 
  70   0.0000      -0.010444        -0.2842 
  71   0.0000      -0.010443        -0.2842 
  72   0.0000       0.017600         0.4789 
  73   0.0000       0.017601         0.4789 
  74   0.0000       0.041823         1.1381 
  75   0.0000       0.041824         1.1381 
  76   0.0000       0.058097         1.5809 
  77   0.0000       0.079135         2.1534 
  78   0.0000       0.110657         3.0111 
  79   0.0000       0.137251         3.7348 
  80   0.0000       0.139014         3.7828 
  81   0.0000       0.139015         3.7828 
  82   0.0000       0.141104         3.8396 
  83   0.0000       0.141105         3.8397 
  84   0.0000       0.175464         4.7746 
  85   0.0000       0.175464         4.7746 
  86   0.0000       0.186377         5.0716 
  87   0.0000       0.189911         5.1677 
  88   0.0000       0.189914         5.1678 
  89   0.0000       0.209293         5.6952 
  90   0.0000       0.217448         5.9171 
  91   0.0000       0.217452         5.9172 
  92   0.0000       0.260692         7.0938 
  93   0.0000       0.427746        11.6396 
  94   0.0000       0.427754        11.6398 
  95   0.0000       0.467027        12.7085 
  96   0.0000       0.478472        13.0199 
  97   0.0000       0.516290        14.0490 
  98   0.0000       0.516300        14.0492 
  99   0.0000       0.570089        15.5129 
 100   0.0000       0.570089        15.5129 
 101   0.0000       0.608690        16.5633 
 102   0.0000       0.615330        16.7440 
 103   0.0000       0.615337        16.7442 
 104   0.0000       0.657411        17.8891 
 105   0.0000       0.681826        18.5534 
 106   0.0000       0.681827        18.5534 
 107   0.0000       0.688609        18.7380 
 108   0.0000       0.705498        19.1976 
 109   0.0000       0.705499        19.1976 
 110   0.0000       0.747232        20.3332 
 111   0.0000       0.747237        20.3333 
 112   0.0000       0.762886        20.7592 
 113   0.0000       0.765743        20.8369 
 114   0.0000       0.779575        21.2133 
 115   0.0000       0.780741        21.2451 
 116   0.0000       0.780744        21.2451 
 117   0.0000       0.789107        21.4727 
 118   0.0000       0.833529        22.6815 
 119   0.0000       0.833544        22.6819 
 120   0.0000       0.854468        23.2513 
 121   0.0000       0.868386        23.6300 
 122   0.0000       0.868391        23.6301 
 123   0.0000       0.876648        23.8548 
 124   0.0000       0.925846        25.1936 
 125   0.0000       0.925854        25.1938 
 126   0.0000       0.952349        25.9147 
 127   0.0000       0.961767        26.1710 
 128   0.0000       0.961781        26.1714 
 129   0.0000       0.972742        26.4697 
 130   0.0000       1.018860        27.7246 
 131   0.0000       1.026564        27.9342 
 132   0.0000       1.030329        28.0367 
 133   0.0000       1.030349        28.0372 
 134   0.0000       1.038421        28.2569 
 135   0.0000       1.038431        28.2571 
 136   0.0000       1.079681        29.3796 
 137   0.0000       1.079689        29.3798 
 138   0.0000       1.086273        29.5590 
 139   0.0000       1.086286        29.5594 
 140   0.0000       1.117605        30.4116 
 141   0.0000       1.124225        30.5917 
 142   0.0000       1.124247        30.5923 
 143   0.0000       1.127941        30.6928 
 144   0.0000       1.174355        31.9558 
 145   0.0000       1.174369        31.9562 
 146   0.0000       1.226038        33.3622 
 147   0.0000       1.282177        34.8898 
 148   0.0000       1.282189        34.8901 
 149   0.0000       1.323830        36.0232 
 150   0.0000       1.369879        37.2763 
 151   0.0000       1.369908        37.2771 
 152   0.0000       1.436916        39.1005 
 153   0.0000       1.484175        40.3865 
 154   0.0000       1.484181        40.3866 
 155   0.0000       1.512705        41.1628 
 156   0.0000       1.973337        53.6972 
 157   0.0000       2.292834        62.3912 
 158   0.0000       2.375967        64.6534 
 159   0.0000       2.375989        64.6539 
 160   0.0000       2.718915        73.9854 
 161   0.0000       2.741644        74.6039 
 162   0.0000       2.741692        74.6052 
 163   0.0000       2.784534        75.7710 
 164   0.0000       2.965669        80.6999 
 165   0.0000       2.996769        81.5462 
 166   0.0000       2.996829        81.5479 
 167   0.0000       3.034063        82.5610 
 168   0.0000       3.034107        82.5622 
 169   0.0000       3.097943        84.2993 
 170   0.0000       3.114513        84.7502 
 171   0.0000       3.114561        84.7515 
 172   0.0000       3.119952        84.8982 
 173   0.0000       3.181686        86.5781 
 174   0.0000       3.188368        86.7599 
 175   0.0000       3.188514        86.7639 
 176   0.0000       3.220058        87.6222 
 177   0.0000       3.263410        88.8019 
 178   0.0000       3.263497        88.8043 
 179   0.0000       3.265278        88.8527 
 180   0.0000       3.288510        89.4849 
 181   0.0000       3.297734        89.7359 
 182   0.0000       3.297927        89.7412 
 183   0.0000       3.353519        91.2539 
 184   0.0000       3.353540        91.2545 
 185   0.0000       3.382639        92.0463 
 186   0.0000       3.382797        92.0506 
 187   0.0000       3.396290        92.4177 
 188   0.0000       3.416909        92.9788 
 189   0.0000       3.427447        93.2656 
 190   0.0000       3.427644        93.2709 
 191   0.0000       3.489260        94.9476 
 192   0.0000       3.525053        95.9216 
 193   0.0000       3.525459        95.9326 
 194   0.0000       3.571902        97.1964 
 195   0.0000       3.571962        97.1980 
 196   0.0000       3.622689        98.5784 
 197   0.0000       3.651375        99.3590 
 198   0.0000       3.651431        99.3605 
 199   0.0000       3.654989        99.4573 
 200   0.0000       3.656419        99.4962 
 201   0.0000       3.656777        99.5060 
 202   0.0000       3.656808        99.5068 
 203   0.0000       3.658738        99.5593 
 204   0.0000       3.663262        99.6824 
 205   0.0000       3.663654        99.6931 
 206   0.0000       3.667201        99.7896 
 207   0.0000       3.667574        99.7998 
 208   0.0000       3.667931        99.8095 
 209   0.0000       3.681490       100.1784 
 210   0.0000       3.682942       100.2179 
 211   0.0000       3.682992       100.2193 
 212   0.0000       3.683786       100.2409 
 213   0.0000       3.695109       100.5490 
 214   0.0000       3.695253       100.5530 
 215   0.0000       3.695854       100.5693 
 216   0.0000       3.696204       100.5788 
 217   0.0000       3.696214       100.5791 
 218   0.0000       3.698013       100.6281 
 219   0.0000       3.735430       101.6462 
 220   0.0000       3.735513       101.6485 
 221   0.0000       3.742977       101.8516 
 222   0.0000       3.761536       102.3566 
 223   0.0000       3.761633       102.3592 
 224   0.0000       3.804220       103.5181 
 225   0.0000       3.804312       103.5206 
 226   0.0000       3.843483       104.5865 
 227   0.0000       3.917693       106.6058 
 228   0.0000       3.917786       106.6084 
 229   0.0000       3.960790       107.7786 
 230   0.0000       4.575957       124.5181 
 231   0.0000       4.581759       124.6760 
 232   0.0000       4.582272       124.6900 
 233   0.0000      27.184713       739.7336 
 234   0.0000      27.184756       739.7348 
 235   0.0000      27.418467       746.0944 
 236   0.0000      27.418495       746.0952 
 237   0.0000      28.268636       769.2287 
 238   0.0000      28.274850       769.3978 
 239   0.0000      28.654690       779.7337 
 240   0.0000      28.654710       779.7343 
 241   0.0000      28.952954       787.8499 
 242   0.0000      30.059198       817.9524 
 243   0.0000      30.059222       817.9530 
 244   0.0000      30.236961       822.7895 
 245   0.0000      43.774919      1191.1761 
 246   0.0000      44.113224      1200.3819 
 247   0.0000      44.242360      1203.8958 
 248   0.0000      44.242365      1203.8959 
 249   0.0000     204.782833      5572.4242 
 250   0.0000     204.933355      5576.5201 
 251   0.0000     204.976251      5577.6874 
 252   0.0000     204.976254      5577.6874 

                 SPIN DOWN ORBITALS
  NO   OCC          E(Eh)            E(eV) 
   0   1.0000      -4.429946      -120.5450 
   1   1.0000      -4.429653      -120.5370 
   2   1.0000      -4.429651      -120.5369 
   3   1.0000      -4.397261      -119.6556 
   4   1.0000      -2.647409       -72.0397 
   5   1.0000      -2.642536       -71.9070 
   6   1.0000      -2.642535       -71.9070 
   7   1.0000      -2.636273       -71.7366 
   8   1.0000      -2.636270       -71.7365 
   9   1.0000      -2.635616       -71.7188 
  10   1.0000      -2.634772       -71.6958 
  11   1.0000      -2.634772       -71.6958 
  12   1.0000      -2.634536       -71.6894 
  13   1.0000      -2.610055       -71.0232 
  14   1.0000      -2.602147       -70.8080 
  15   1.0000      -2.602145       -70.8080 
  16   1.0000      -0.831360       -22.6225 
  17   1.0000      -0.754521       -20.5316 
  18   1.0000      -0.719304       -19.5732 
  19   1.0000      -0.719302       -19.5732 
  20   1.0000      -0.695269       -18.9192 
  21   1.0000      -0.695267       -18.9192 
  22   1.0000      -0.692099       -18.8330 
  23   1.0000      -0.680915       -18.5286 
  24   1.0000      -0.675492       -18.3811 
  25   1.0000      -0.675492       -18.3811 
  26   1.0000      -0.654396       -17.8070 
  27   1.0000      -0.654395       -17.8070 
  28   1.0000      -0.652473       -17.7547 
  29   1.0000      -0.652466       -17.7545 
  30   1.0000      -0.649588       -17.6762 
  31   1.0000      -0.627677       -17.0800 
  32   1.0000      -0.624923       -17.0050 
  33   1.0000      -0.624915       -17.0048 
  34   1.0000      -0.624735       -16.9999 
  35   1.0000      -0.612168       -16.6579 
  36   1.0000      -0.612163       -16.6578 
  37   0.0000      -0.532603       -14.4929 
  38   0.0000      -0.521839       -14.2000 
  39   0.0000      -0.521838       -14.1999 
  40   0.0000      -0.438103       -11.9214 
  41   0.0000      -0.363887        -9.9019 
  42   0.0000      -0.358377        -9.7519 
  43   0.0000      -0.358374        -9.7519 
  44   0.0000      -0.338495        -9.2109 
  45   0.0000      -0.338493        -9.2109 
  46   0.0000      -0.219458        -5.9718 
  47   0.0000      -0.210986        -5.7412 
  48   0.0000      -0.210984        -5.7412 
  49   0.0000      -0.206675        -5.6239 
  50   0.0000      -0.205462        -5.5909 
  51   0.0000      -0.203760        -5.5446 
  52   0.0000      -0.203760        -5.5446 
  53   0.0000      -0.156756        -4.2656 
  54   0.0000      -0.130674        -3.5558 
  55   0.0000      -0.116788        -3.1780 
  56   0.0000      -0.116788        -3.1780 
  57   0.0000      -0.110004        -2.9934 
  58   0.0000      -0.110004        -2.9934 
  59   0.0000      -0.105021        -2.8578 
  60   0.0000      -0.076786        -2.0895 
  61   0.0000      -0.076782        -2.0893 
  62   0.0000      -0.048975        -1.3327 
  63   0.0000      -0.048975        -1.3327 
  64   0.0000      -0.045422        -1.2360 
  65   0.0000      -0.026755        -0.7281 
  66   0.0000      -0.026652        -0.7252 
  67   0.0000      -0.026651        -0.7252 
  68   0.0000      -0.021756        -0.5920 
  69   0.0000      -0.012045        -0.3278 
  70   0.0000      -0.007122        -0.1938 
  71   0.0000      -0.007120        -0.1937 
  72   0.0000       0.022927         0.6239 
  73   0.0000       0.022932         0.6240 
  74   0.0000       0.045334         1.2336 
  75   0.0000       0.045337         1.2337 
  76   0.0000       0.060793         1.6543 
  77   0.0000       0.084310         2.2942 
  78   0.0000       0.116352         3.1661 
  79   0.0000       0.142093         3.8665 
  80   0.0000       0.142317         3.8726 
  81   0.0000       0.142318         3.8727 
  82   0.0000       0.146700         3.9919 
  83   0.0000       0.146705         3.9920 
  84   0.0000       0.179624         4.8878 
  85   0.0000       0.179628         4.8879 
  86   0.0000       0.192541         5.2393 
  87   0.0000       0.192544         5.2394 
  88   0.0000       0.194136         5.2827 
  89   0.0000       0.210864         5.7379 
  90   0.0000       0.223175         6.0729 
  91   0.0000       0.223179         6.0730 
  92   0.0000       0.268684         7.3113 
  93   0.0000       0.435016        11.8374 
  94   0.0000       0.435030        11.8378 
  95   0.0000       0.469621        12.7790 
  96   0.0000       0.487651        13.2697 
  97   0.0000       0.519302        14.1309 
  98   0.0000       0.519310        14.1311 
  99   0.0000       0.574594        15.6355 
 100   0.0000       0.574595        15.6355 
 101   0.0000       0.613543        16.6954 
 102   0.0000       0.620830        16.8936 
 103   0.0000       0.620838        16.8939 
 104   0.0000       0.661479        17.9997 
 105   0.0000       0.685578        18.6555 
 106   0.0000       0.685578        18.6555 
 107   0.0000       0.696458        18.9516 
 108   0.0000       0.707953        19.2644 
 109   0.0000       0.707953        19.2644 
 110   0.0000       0.752452        20.4753 
 111   0.0000       0.752458        20.4754 
 112   0.0000       0.768911        20.9231 
 113   0.0000       0.771191        20.9852 
 114   0.0000       0.782065        21.2811 
 115   0.0000       0.785921        21.3860 
 116   0.0000       0.785926        21.3861 
 117   0.0000       0.796791        21.6818 
 118   0.0000       0.838135        22.8068 
 119   0.0000       0.838147        22.8071 
 120   0.0000       0.864084        23.5129 
 121   0.0000       0.872740        23.7485 
 122   0.0000       0.872744        23.7486 
 123   0.0000       0.880749        23.9664 
 124   0.0000       0.932369        25.3710 
 125   0.0000       0.932376        25.3712 
 126   0.0000       0.956891        26.0383 
 127   0.0000       0.964403        26.2427 
 128   0.0000       0.964418        26.2432 
 129   0.0000       0.981164        26.6988 
 130   0.0000       1.024638        27.8818 
 131   0.0000       1.027228        27.9523 
 132   0.0000       1.036202        28.1965 
 133   0.0000       1.036218        28.1969 
 134   0.0000       1.045054        28.4374 
 135   0.0000       1.045066        28.4377 
 136   0.0000       1.083741        29.4901 
 137   0.0000       1.083746        29.4902 
 138   0.0000       1.090335        29.6695 
 139   0.0000       1.090353        29.6700 
 140   0.0000       1.121735        30.5240 
 141   0.0000       1.129827        30.7442 
 142   0.0000       1.130323        30.7577 
 143   0.0000       1.130345        30.7582 
 144   0.0000       1.179879        32.1061 
 145   0.0000       1.179901        32.1067 
 146   0.0000       1.235944        33.6318 
 147   0.0000       1.285579        34.9824 
 148   0.0000       1.285592        34.9827 
 149   0.0000       1.328749        36.1571 
 150   0.0000       1.377048        37.4714 
 151   0.0000       1.377075        37.4721 
 152   0.0000       1.444607        39.3098 
 153   0.0000       1.489168        40.5223 
 154   0.0000       1.489174        40.5225 
 155   0.0000       1.513342        41.1801 
 156   0.0000       1.977669        53.8151 
 157   0.0000       2.298638        62.5491 
 158   0.0000       2.378834        64.7314 
 159   0.0000       2.378855        64.7319 
 160   0.0000       2.735959        74.4492 
 161   0.0000       2.750931        74.8566 
 162   0.0000       2.750987        74.8582 
 163   0.0000       2.793045        76.0026 
 164   0.0000       2.968000        80.7634 
 165   0.0000       3.001615        81.6781 
 166   0.0000       3.001681        81.6799 
 167   0.0000       3.040739        82.7427 
 168   0.0000       3.040780        82.7438 
 169   0.0000       3.100773        84.3763 
 170   0.0000       3.118049        84.8464 
 171   0.0000       3.118094        84.8477 
 172   0.0000       3.123482        84.9943 
 173   0.0000       3.184497        86.6546 
 174   0.0000       3.190877        86.8282 
 175   0.0000       3.191016        86.8320 
 176   0.0000       3.224023        87.7301 
 177   0.0000       3.267108        88.9025 
 178   0.0000       3.267196        88.9049 
 179   0.0000       3.270336        88.9904 
 180   0.0000       3.292908        89.6046 
 181   0.0000       3.302027        89.8527 
 182   0.0000       3.302222        89.8580 
 183   0.0000       3.357545        91.3635 
 184   0.0000       3.357562        91.3639 
 185   0.0000       3.385851        92.1337 
 186   0.0000       3.386023        92.1384 
 187   0.0000       3.402513        92.5871 
 188   0.0000       3.422136        93.1210 
 189   0.0000       3.432842        93.4124 
 190   0.0000       3.433056        93.4182 
 191   0.0000       3.490553        94.9828 
 192   0.0000       3.529836        96.0517 
 193   0.0000       3.530246        96.0629 
 194   0.0000       3.578840        97.3852 
 195   0.0000       3.578877        97.3862 
 196   0.0000       3.627090        98.6981 
 197   0.0000       3.653641        99.4206 
 198   0.0000       3.653654        99.4210 
 199   0.0000       3.656576        99.5005 
 200   0.0000       3.658560        99.5545 
 201   0.0000       3.659538        99.5811 
 202   0.0000       3.659561        99.5817 
 203   0.0000       3.661292        99.6288 
 204   0.0000       3.665852        99.7529 
 205   0.0000       3.666305        99.7652 
 206   0.0000       3.669156        99.8428 
 207   0.0000       3.669464        99.8512 
 208   0.0000       3.670233        99.8721 
 209   0.0000       3.685407       100.2850 
 210   0.0000       3.685742       100.2941 
 211   0.0000       3.685802       100.2958 
 212   0.0000       3.687773       100.3494 
 213   0.0000       3.697927       100.6257 
 214   0.0000       3.697988       100.6274 
 215   0.0000       3.700168       100.6867 
 216   0.0000       3.700169       100.6867 
 217   0.0000       3.701325       100.7182 
 218   0.0000       3.701596       100.7255 
 219   0.0000       3.738579       101.7319 
 220   0.0000       3.738658       101.7341 
 221   0.0000       3.746827       101.9563 
 222   0.0000       3.766814       102.5002 
 223   0.0000       3.766903       102.5026 
 224   0.0000       3.808338       103.6302 
 225   0.0000       3.808431       103.6327 
 226   0.0000       3.844736       104.6206 
 227   0.0000       3.925759       106.8253 
 228   0.0000       3.925861       106.8281 
 229   0.0000       3.965952       107.9190 
 230   0.0000       4.570644       124.3735 
 231   0.0000       4.583393       124.7205 
 232   0.0000       4.583828       124.7323 
 233   0.0000      27.186147       739.7727 
 234   0.0000      27.186191       739.7739 
 235   0.0000      27.420916       746.1611 
 236   0.0000      27.420944       746.1618 
 237   0.0000      28.271928       769.3183 
 238   0.0000      28.275527       769.4162 
 239   0.0000      28.657425       779.8082 
 240   0.0000      28.657447       779.8088 
 241   0.0000      28.956902       787.9574 
 242   0.0000      30.061477       818.0144 
 243   0.0000      30.061502       818.0151 
 244   0.0000      30.239286       822.8528 
 245   0.0000      43.775916      1191.2032 
 246   0.0000      44.114174      1200.4077 
 247   0.0000      44.243409      1203.9244 
 248   0.0000      44.243414      1203.9245 
 249   0.0000     204.783556      5572.4438 
 250   0.0000     204.934112      5576.5407 
 251   0.0000     204.976937      5577.7060 
 252   0.0000     204.976939      5577.7061 

                    ********************************
                    * MULLIKEN POPULATION ANALYSIS *
                    ********************************

--------------------------------------------
MULLIKEN ATOMIC CHARGES AND SPIN POPULATIONS
--------------------------------------------
   0 Au:    0.458063    0.103320
   1 Au:    0.458149    0.103324
   2 Au:    0.458144    0.103325
   3 Au:    0.343468    0.481623
   4 H :    0.282177    0.208409
Sum of atomic charges         :    2.0000000
Sum of atomic spin populations:    1.0000000

-----------------------------------------------------
MULLIKEN REDUCED ORBITAL CHARGES AND SPIN POPULATIONS
-----------------------------------------------------
CHARGE
  0 Aus       :     2.650005  s :     2.650005
      pz      :     2.092792  p :     6.221256
      px      :     2.028760
      py      :     2.099704
      dz2     :     1.946817  d :     9.656733
      dxz     :     1.989380
      dyz     :     1.870246
      dx2y2   :     1.960450
      dxy     :     1.889841
      f0      :     0.001725  f :     0.013751
      f+1     :     0.000841
      f-1     :     0.002387
      f+2     :     0.001980
      f-2     :     0.001699
      f+3     :     0.002612
      f-3     :     0.002507
      g0      :     0.000017  g :     0.000192
      g+1     :     0.000006
      g-1     :     0.000024
      g+2     :     0.000023
      g-2     :     0.000017
      g+3     :     0.000020
      g-3     :     0.000020
      g+4     :     0.000030
      g-4     :     0.000033
  1 Aus       :     2.649973  s :     2.649973
      pz      :     2.092768  p :     6.221203
      px      :     2.081952
      py      :     2.046483
      dz2     :     1.946816  d :     9.656732
      dxz     :     1.900028
      dyz     :     1.959590
      dx2y2   :     1.907495
      dxy     :     1.942802
      f0      :     0.001725  f :     0.013752
      f+1     :     0.002000
      f-1     :     0.001228
      f+2     :     0.001769
      f-2     :     0.001910
      f+3     :     0.002611
      f-3     :     0.002508
      g0      :     0.000017  g :     0.000192
      g+1     :     0.000020
      g-1     :     0.000011
      g+2     :     0.000019
      g-2     :     0.000022
      g+3     :     0.000020
      g-3     :     0.000020
      g+4     :     0.000032
      g-4     :     0.000031
  2 Aus       :     2.649976  s :     2.649976
      pz      :     2.092768  p :     6.221204
      px      :     2.081953
      py      :     2.046484
      dz2     :     1.946816  d :     9.656732
      dxz     :     1.900028
      dyz     :     1.959590
      dx2y2   :     1.907495
      dxy     :     1.942802
      f0      :     0.001725  f :     0.013752
      f+1     :     0.002000
      f-1     :     0.001228
      f+2     :     0.001769
      f-2     :     0.001910
      f+3     :     0.002611
      f-3     :     0.002508
      g0      :     0.000017  g :     0.000192
      g+1     :     0.000020
      g-1     :     0.000011
      g+2     :     0.000019
      g-2     :     0.000022
      g+3     :     0.000020
      g-3     :     0.000020
      g+4     :     0.000032
      g-4     :     0.000031
  3 Aus       :     2.904044  s :     2.904044
      pz      :     2.057932  p :     6.098110
      px      :     2.020091
      py      :     2.020087
      dz2     :     1.959658  d :     9.645219
      dxz     :     1.866676
      dyz     :     1.866680
      dx2y2   :     1.976104
      dxy     :     1.976102
      f0      :     0.001663  f :     0.009035
      f+1     :     0.001940
      f-1     :     0.001939
      f+2     :     0.001466
      f-2     :     0.001466
      f+3     :     0.000288
      f-3     :     0.000272
      g0      :     0.000018  g :     0.000124
      g+1     :     0.000023
      g-1     :     0.000023
      g+2     :     0.000021
      g-2     :     0.000021
      g+3     :     0.000008
      g-3     :     0.000008
      g+4     :     0.000001
      g-4     :     0.000001
  4 H s       :     0.722172  s :     0.722172
      pz      :    -0.042363  p :    -0.007731
      px      :     0.017316
      py      :     0.017316
      dz2     :     0.000724  d :     0.003383
      dxz     :     0.000731
      dyz     :     0.000731
      dx2y2   :     0.000598
      dxy     :     0.000598

SPIN
  0 Aus       :    -0.013783  s :    -0.013783
      pz      :     0.049550  p :     0.048108
      px      :    -0.000387
      py      :    -0.001055
      dz2     :     0.000902  d :     0.068814
      dxz     :    -0.000502
      dyz     :     0.066320
      dx2y2   :     0.003309
      dxy     :    -0.001214
      f0      :    -0.000028  f :     0.000174
      f+1     :    -0.000002
      f-1     :    -0.000045
      f+2     :     0.000297
      f-2     :    -0.000034
      f+3     :    -0.000023
      f-3     :     0.000010
      g0      :     0.000001  g :     0.000007
      g+1     :    -0.000000
      g-1     :     0.000000
      g+2     :     0.000002
      g-2     :    -0.000001
      g+3     :     0.000001
      g-3     :     0.000002
      g+4     :     0.000001
      g-4     :     0.000001
  1 Aus       :    -0.013778  s :    -0.013778
      pz      :     0.049533  p :     0.048099
      px      :    -0.000882
      py      :    -0.000551
      dz2     :     0.000906  d :     0.068822
      dxz     :     0.049611
      dyz     :     0.016207
      dx2y2   :    -0.000083
      dxy     :     0.002181
      f0      :    -0.000028  f :     0.000174
      f+1     :    -0.000035
      f-1     :    -0.000013
      f+2     :     0.000049
      f-2     :     0.000214
      f+3     :    -0.000023
      f-3     :     0.000010
      g0      :     0.000001  g :     0.000007
      g+1     :     0.000000
      g-1     :     0.000000
      g+2     :    -0.000000
      g-2     :     0.000001
      g+3     :     0.000001
      g-3     :     0.000002
      g+4     :     0.000001
      g-4     :     0.000001
  2 Aus       :    -0.013778  s :    -0.013778
      pz      :     0.049533  p :     0.048100
      px      :    -0.000882
      py      :    -0.000551
      dz2     :     0.000906  d :     0.068822
      dxz     :     0.049611
      dyz     :     0.016207
      dx2y2   :    -0.000083
      dxy     :     0.002181
      f0      :    -0.000028  f :     0.000174
      f+1     :    -0.000035
      f-1     :    -0.000013
      f+2     :     0.000049
      f-2     :     0.000214
      f+3     :    -0.000023
      f-3     :     0.000010
      g0      :     0.000001  g :     0.000007
      g+1     :     0.000000
      g-1     :     0.000000
      g+2     :    -0.000000
      g-2     :     0.000001
      g+3     :     0.000001
      g-3     :     0.000002
      g+4     :     0.000001
      g-4     :     0.000001
  3 Aus       :     0.456727  s :     0.456727
      pz      :    -0.005297  p :    -0.001913
      px      :     0.001692
      py      :     0.001692
      dz2     :     0.013550  d :     0.026697
      dxz     :     0.006352
      dyz     :     0.006352
      dx2y2   :     0.000221
      dxy     :     0.000222
      f0      :     0.000104  f :     0.000104
      f+1     :    -0.000014
      f-1     :    -0.000014
      f+2     :     0.000007
      f-2     :     0.000007
      f+3     :     0.000006
      f-3     :     0.000009
      g0      :     0.000002  g :     0.000007
      g+1     :     0.000002
      g-1     :     0.000002
      g+2     :     0.000001
      g-2     :     0.000001
      g+3     :     0.000000
      g-3     :    -0.000000
      g+4     :     0.000000
      g-4     :     0.000000
  4 H s       :     0.203964  s :     0.203964
      pz      :     0.001034  p :     0.004468
      px      :     0.001716
      py      :     0.001719
      dz2     :     0.000017  d :    -0.000024
      dxz     :    -0.000032
      dyz     :    -0.000032
      dx2y2   :     0.000012
      dxy     :     0.000012


                     *******************************
                     * LOEWDIN POPULATION ANALYSIS *
                     *******************************

-------------------------------------------
LOEWDIN ATOMIC CHARGES AND SPIN POPULATIONS
-------------------------------------------
   0 Au:    0.563693    0.186190
   1 Au:    0.563687    0.186192
   2 Au:    0.563687    0.186192
   3 Au:    0.458201    0.312986
   4 H :   -0.149269    0.128441

----------------------------------------------------
LOEWDIN REDUCED ORBITAL CHARGES AND SPIN POPULATIONS
----------------------------------------------------
CHARGE
  0 Aus       :     2.329948  s :     2.329948
      pz      :     2.166188  p :     6.353921
      px      :     2.045674
      py      :     2.142059
      dz2     :     1.959473  d :     9.727901
      dxz     :     1.984037
      dyz     :     1.903923
      dx2y2   :     1.966187
      dxy     :     1.914281
      f0      :     0.002564  f :     0.024241
      f+1     :     0.001399
      f-1     :     0.004486
      f+2     :     0.005130
      f-2     :     0.002030
      f+3     :     0.005160
      f-3     :     0.003473
      g0      :     0.000028  g :     0.000296
      g+1     :     0.000008
      g-1     :     0.000035
      g+2     :     0.000037
      g-2     :     0.000029
      g+3     :     0.000021
      g-3     :     0.000047
      g+4     :     0.000041
      g-4     :     0.000048
  1 Aus       :     2.329961  s :     2.329961
      pz      :     2.166180  p :     6.353911
      px      :     2.117962
      py      :     2.069770
      dz2     :     1.959472  d :     9.727903
      dxz     :     1.923954
      dyz     :     1.964004
      dx2y2   :     1.927265
      dxy     :     1.953208
      f0      :     0.002564  f :     0.024242
      f+1     :     0.003714
      f-1     :     0.002171
      f+2     :     0.002805
      f-2     :     0.004356
      f+3     :     0.005159
      f-3     :     0.003473
      g0      :     0.000028  g :     0.000296
      g+1     :     0.000028
      g-1     :     0.000015
      g+2     :     0.000031
      g-2     :     0.000035
      g+3     :     0.000020
      g-3     :     0.000047
      g+4     :     0.000047
      g-4     :     0.000043
  2 Aus       :     2.329961  s :     2.329961
      pz      :     2.166180  p :     6.353911
      px      :     2.117962
      py      :     2.069770
      dz2     :     1.959472  d :     9.727903
      dxz     :     1.923954
      dyz     :     1.964004
      dx2y2   :     1.927265
      dxy     :     1.953208
      f0      :     0.002564  f :     0.024242
      f+1     :     0.003714
      f-1     :     0.002171
      f+2     :     0.002805
      f-2     :     0.004356
      f+3     :     0.005159
      f-3     :     0.003473
      g0      :     0.000028  g :     0.000296
      g+1     :     0.000028
      g-1     :     0.000015
      g+2     :     0.000031
      g-2     :     0.000035
      g+3     :     0.000020
      g-3     :     0.000047
      g+4     :     0.000047
      g-4     :     0.000043
  3 Aus       :     2.577953  s :     2.577953
      pz      :     2.145145  p :     6.218642
      px      :     2.036749
      py      :     2.036748
      dz2     :     1.980082  d :     9.729966
      dxz     :     1.894560
      dyz     :     1.894568
      dx2y2   :     1.980379
      dxy     :     1.980377
      f0      :     0.002341  f :     0.015060
      f+1     :     0.003802
      f-1     :     0.003801
      f+2     :     0.002182
      f-2     :     0.002182
      f+3     :     0.000413
      f-3     :     0.000339
      g0      :     0.000021  g :     0.000177
      g+1     :     0.000035
      g-1     :     0.000035
      g+2     :     0.000030
      g-2     :     0.000030
      g+3     :     0.000011
      g-3     :     0.000011
      g+4     :     0.000001
      g-4     :     0.000001
  4 H s       :     0.731970  s :     0.731970
      pz      :     0.137398  p :     0.396945
      px      :     0.129776
      py      :     0.129771
      dz2     :     0.002718  d :     0.020354
      dxz     :     0.005380
      dyz     :     0.005380
      dx2y2   :     0.003438
      dxy     :     0.003438

SPIN
  0 Aus       :    -0.003841  s :    -0.003841
      pz      :     0.101545  p :     0.102261
      px      :    -0.000728
      py      :     0.001444
      dz2     :     0.002384  d :     0.086306
      dxz     :    -0.000320
      dyz     :     0.081877
      dx2y2   :     0.003721
      dxy     :    -0.001356
      f0      :     0.000021  f :     0.001442
      f+1     :    -0.000001
      f-1     :     0.000036
      f+2     :     0.001343
      f-2     :    -0.000018
      f+3     :    -0.000039
      f-3     :     0.000102
      g0      :     0.000003  g :     0.000021
      g+1     :    -0.000000
      g-1     :     0.000002
      g+2     :     0.000003
      g-2     :    -0.000001
      g+3     :     0.000001
      g-3     :     0.000012
      g+4     :     0.000002
      g-4     :     0.000000
  1 Aus       :    -0.003841  s :    -0.003841
      pz      :     0.101542  p :     0.102257
      px      :     0.000901
      py      :    -0.000185
      dz2     :     0.002386  d :     0.086312
      dxz     :     0.061325
      dyz     :     0.020233
      dx2y2   :    -0.000086
      dxy     :     0.002454
      f0      :     0.000021  f :     0.001442
      f+1     :     0.000026
      f-1     :     0.000008
      f+2     :     0.000322
      f-2     :     0.001003
      f+3     :    -0.000040
      f-3     :     0.000102
      g0      :     0.000003  g :     0.000021
      g+1     :     0.000001
      g-1     :     0.000000
      g+2     :    -0.000000
      g-2     :     0.000002
      g+3     :     0.000001
      g-3     :     0.000012
      g+4     :     0.000001
      g-4     :     0.000001
  2 Aus       :    -0.003841  s :    -0.003841
      pz      :     0.101542  p :     0.102257
      px      :     0.000901
      py      :    -0.000185
      dz2     :     0.002386  d :     0.086312
      dxz     :     0.061325
      dyz     :     0.020233
      dx2y2   :    -0.000086
      dxy     :     0.002454
      f0      :     0.000021  f :     0.001442
      f+1     :     0.000026
      f-1     :     0.000008
      f+2     :     0.000322
      f-2     :     0.001003
      f+3     :    -0.000040
      f-3     :     0.000102
      g0      :     0.000003  g :     0.000021
      g+1     :     0.000001
      g-1     :     0.000000
      g+2     :    -0.000000
      g-2     :     0.000002
      g+3     :     0.000001
      g-3     :     0.000012
      g+4     :     0.000001
      g-4     :     0.000001
  3 Aus       :     0.274033  s :     0.274033
      pz      :     0.012056  p :     0.013917
      px      :     0.000931
      py      :     0.000931
      dz2     :     0.015222  d :     0.024933
      dxz     :     0.004853
      dyz     :     0.004853
      dx2y2   :     0.000002
      dxy     :     0.000002
      f0      :     0.000188  f :     0.000096
      f+1     :    -0.000049
      f-1     :    -0.000049
      f+2     :     0.000001
      f-2     :     0.000001
      f+3     :     0.000005
      f-3     :     0.000000
      g0      :     0.000002  g :     0.000006
      g+1     :     0.000002
      g-1     :     0.000002
      g+2     :     0.000001
      g-2     :     0.000001
      g+3     :     0.000000
      g-3     :    -0.000000
      g+4     :     0.000000
      g-4     :     0.000000
  4 H s       :     0.118067  s :     0.118067
      pz      :     0.009082  p :     0.010615
      px      :     0.000766
      py      :     0.000767
      dz2     :     0.000008  d :    -0.000241
      dxz     :    -0.000107
      dyz     :    -0.000107
      dx2y2   :    -0.000018
      dxy     :    -0.000018


                      *****************************
                      * MAYER POPULATION ANALYSIS *
                      *****************************

  NA   - Mulliken gross atomic population
  ZA   - Total nuclear charge
  QA   - Mulliken gross atomic charge
  VA   - Mayer's total valence
  BVA  - Mayer's bonded valence
  FA   - Mayer's free valence

  ATOM       NA         ZA         QA         VA         BVA        FA
  0 Au    18.5419    19.0000     0.4581     1.7826     1.7631     0.0195
  1 Au    18.5419    19.0000     0.4581     1.7825     1.7630     0.0195
  2 Au    18.5419    19.0000     0.4581     1.7825     1.7630     0.0195
  3 Au    18.6565    19.0000     0.3435     1.7315     1.5140     0.2175
  4 H      0.7178     1.0000     0.2822     0.7870     0.7453     0.0418

  Mayer bond orders larger than 0.100000
B(  0-Au,  1-Au) :   0.5208 B(  0-Au,  2-Au) :   0.5208 B(  0-Au,  3-Au) :   0.4889 
B(  0-Au,  4-H ) :   0.2325 B(  1-Au,  2-Au) :   0.5207 B(  1-Au,  3-Au) :   0.4888 
B(  1-Au,  4-H ) :   0.2326 B(  2-Au,  3-Au) :   0.4888 B(  2-Au,  4-H ) :   0.2326 


-------
TIMINGS
-------

Total SCF time: 0 days 0 hours 0 min 5 sec 

Total time                  ....       5.466 sec
Sum of individual times     ....       5.265 sec  ( 96.3%)

Fock matrix formation       ....       3.379 sec  ( 61.8%)
  Split-RI-J                ....       1.418 sec  ( 42.0% of F)
  XC integration            ....       1.828 sec  ( 54.1% of F)
    Basis function eval.    ....       0.099 sec  (  5.4% of XC)
    Density eval.           ....       0.373 sec  ( 20.4% of XC)
    XC-Functional eval.     ....       0.049 sec  (  2.7% of XC)
    XC-Potential eval.      ....       0.767 sec  ( 42.0% of XC)
Diagonalization             ....       0.260 sec  (  4.7%)
Density matrix formation    ....       0.026 sec  (  0.5%)
Population analysis         ....       0.020 sec  (  0.4%)
Initial guess               ....       1.054 sec  ( 19.3%)
Orbital Transformation      ....       0.000 sec  (  0.0%)
Orbital Orthonormalization  ....       0.000 sec  (  0.0%)
DIIS solution               ....       0.088 sec  (  1.6%)
Grid generation             ....       0.439 sec  (  8.0%)


-------------------------------------------------------------------------------
                          DFT DISPERSION CORRECTION                            
                                                                               
                              DFTD3 V3.1  Rev 1                                
                          USING Becke-Johnson damping                          
-------------------------------------------------------------------------------
The TPSS functional is recognized
Active option DFTDOPT                   ...         4   

molecular C6(AA) [au] = 5322.958110 


            DFT-D V3
 parameters
 s6 scaling factor         :     1.0000 
 a1 scaling factor         :     0.4535 
 s8 scaling factor         :     1.9435 
 a2 scaling factor         :     4.4752 
 ad hoc parameters k1-k3   :    16.0000     1.3333    -4.0000 

 Edisp/kcal,au: -8.861717609782  -0.014122044417 
 E6   /kcal   :  -2.753716043 
 E8   /kcal   :  -6.108001567 
 % E8         :  68.925707588 

-------------------------   ----------------
Dispersion correction           -0.014122044
-------------------------   ----------------


-------------------------   --------------------
FINAL SINGLE POINT ENERGY      -542.746321519405
-------------------------   --------------------


                            ***************************************
                            *     ORCA property calculations      *
                            ***************************************

                                    ---------------------
                                    Active property flags
                                    ---------------------
   (+) Dipole Moment


------------------------------------------------------------------------------
                       ORCA ELECTRIC PROPERTIES CALCULATION
------------------------------------------------------------------------------

Dipole Moment Calculation                       ... on
Quadrupole Moment Calculation                   ... off
Polarizability Calculation                      ... off
GBWName                                         ... Au04C2_H_F.gbw
Electron density file                           ... Au04C2_H_F.scfp
The origin for moment calculation is the CENTER OF MASS  = ( 0.000000,  0.000000  0.005925)

-------------
DIPOLE MOMENT
-------------
                                X             Y             Z
Electronic contribution:      0.00000      -0.00003       2.32429
Nuclear contribution   :      0.00000       0.00000      -2.84605
                        -----------------------------------------
Total Dipole Moment    :      0.00000      -0.00003      -0.52176
                        -----------------------------------------
Magnitude (a.u.)       :      0.52176
Magnitude (Debye)      :      1.32622



--------------------
Rotational spectrum 
--------------------
 
Rotational constants in cm-1:     0.011617     0.011195     0.011195 
Rotational constants in MHz :   348.279987   335.605170   335.605004 

 Dipole components along the rotational axes: 
x,y,z [a.u.] :    -0.521763    -0.000035     0.000000 
x,y,z [Debye]:    -1.326216    -0.000088     0.000000 

 

Timings for individual modules:

Sum of individual times         ...        7.495 sec (=   0.125 min)
GTO integral calculation        ...        1.694 sec (=   0.028 min)  22.6 %
SCF iterations                  ...        5.801 sec (=   0.097 min)  77.4 %
                             ****ORCA TERMINATED NORMALLY****
TOTAL RUN TIME: 0 days 0 hours 0 minutes 8 seconds 22 msec
