
                                 *****************
                                 * O   R   C   A *
                                 *****************

           --- An Ab Initio, DFT and Semiempirical electronic structure package ---

                  #######################################################
                  #                        -***-                        #
                  #          Department of theory and spectroscopy      #
                  #               Directorship: Frank Neese             #
                  #        Max Planck Institute fuer Kohlenforschung    #
                  #                Kaiser Wilhelm Platz 1               #
                  #                 D-45470 Muelheim/Ruhr               #
                  #                      Germany                        #
                  #                                                     #
                  #                  All rights reserved                #
                  #                        -***-                        #
                  #######################################################


                         Program Version 4.2.0 -  RELEASE  -


 With contributions from (in alphabetic order):
   Daniel Aravena         : Magnetic Suceptibility
   Michael Atanasov       : Ab Initio Ligand Field Theory (pilot matlab implementation)
   Alexander A. Auer      : GIAO ZORA, VPT2
   Ute Becker             : Parallelization
   Giovanni Bistoni       : ED, misc. LED, open-shell LED, HFLED
   Martin Brehm           : Molecular dynamics
   Dmytro Bykov           : SCF Hessian
   Vijay G. Chilkuri      : MRCI spin determinant printing, contributions to CSF-ICE
   Dipayan Datta          : RHF DLPNO-CCSD density
   Achintya Kumar Dutta   : EOM-CC, STEOM-CC
   Dmitry Ganyushin       : Spin-Orbit,Spin-Spin,Magnetic field MRCI
   Miquel Garcia          : C-PCM Hessian, Gaussian charge scheme
   Yang Guo               : DLPNO-NEVPT2, CIM, IAO-localization
   Andreas Hansen         : Spin unrestricted coupled pair/coupled cluster methods
   Benjamin Helmich-Paris : CASSCF linear response (MC-RPA)
   Lee Huntington         : MR-EOM, pCC
   Robert Izsak           : Overlap fitted RIJCOSX, COSX-SCS-MP3, EOM
   Christian Kollmar      : KDIIS, OOCD, Brueckner-CCSD(T), CCSD density
   Simone Kossmann        : Meta GGA functionals, TD-DFT gradient, OOMP2, MP2 Hessian
   Martin Krupicka        : AUTO-CI
   Lucas Lang             : DCDCAS
   Dagmar Lenk            : GEPOL surface, SMD
   Dimitrios Liakos       : Extrapolation schemes; Compound Job, initial MDCI parallelization
   Dimitrios Manganas     : Further ROCIS development; embedding schemes
   Dimitrios Pantazis     : SARC Basis sets
   Taras Petrenko         : DFT Hessian,TD-DFT gradient, ASA, ECA, R-Raman, ABS, FL, XAS/XES, NRVS
   Peter Pinski           : DLPNO-MP2, DLPNO-MP2 Gradient
   Christoph Reimann      : Effective Core Potentials
   Marius Retegan         : Local ZFS, SOC
   Christoph Riplinger    : Optimizer, TS searches, QM/MM, DLPNO-CCSD(T), (RO)-DLPNO pert. Triples
   Tobias Risthaus        : Range-separated hybrids, TD-DFT gradient, RPA, STAB
   Michael Roemelt        : Original ROCIS implementation
   Masaaki Saitow         : Open-shell DLPNO-CCSD energy and density
   Barbara Sandhoefer     : DKH picture change effects
   Avijit Sen             : IP-ROCIS
   Kantharuban Sivalingam : CASSCF convergence, NEVPT2, FIC-MRCI
   Bernardo de Souza      : ESD, SOC TD-DFT
   Georgi Stoychev        : AutoAux, RI-MP2 NMR
   Willem Van den Heuvel  : Paramagnetic NMR
   Boris Wezisla          : Elementary symmetry handling
   Frank Wennmohs         : Technical directorship


 We gratefully acknowledge several colleagues who have allowed us to
 interface, adapt or use parts of their codes:
   Stefan Grimme, W. Hujo, H. Kruse,             : VdW corrections, initial TS optimization,
                  C. Bannwarth                     DFT functionals, gCP, sTDA/sTD-DF
   Ed Valeev, F. Pavosevic, A. Kumar             : LibInt (2-el integral package), F12 methods
   Garnet Chan, S. Sharma, J. Yang, R. Olivares  : DMRG
   Ulf Ekstrom                                   : XCFun DFT Library
   Mihaly Kallay                                 : mrcc  (arbitrary order and MRCC methods)
   Andreas Klamt, Michael Diedenhofen            : otool_cosmo (COSMO solvation model)
   Jiri Pittner, Ondrej Demel                    : Mk-CCSD
   Frank Weinhold                                : gennbo (NPA and NBO analysis)
   Christopher J. Cramer and Donald G. Truhlar   : smd solvation model
   Lars Goerigk                                  : TD-DFT with DH, B97 family of functionals
   V. Asgeirsson, H. Jonsson                     : NEB implementation
   FAccTs GmbH                                   : IRC, NEB, NEB-TS, Multilevel, MM, QM/MM, CI optimization
   S Lehtola, MJT Oliveira, MAL Marques          : LibXC Library


 Your calculation uses the libint2 library for the computation of 2-el integrals
 For citations please refer to: http://libint.valeyev.net

 Your ORCA version has been built with support for libXC version: 4.2.3
 For citations please refer to: https://tddft.org/programs/libxc/

 This ORCA versions uses:
   CBLAS   interface :  Fast vector & matrix operations
   LAPACKE interface :  Fast linear algebra routines
   SCALAPACK package :  Parallel linear algebra routines


Your calculation utilizes the atom-pairwise dispersion correction
with the Becke-Johnson damping scheme (D3BJ)
Cite in your paper:
S.Grimme, S.Ehrlich, L.Goerigk, J Comput Chem, (2011), 32, 1456–1465 
S.Grimme, J.Antony, S.Ehrlich and H.Krieg, J.Chem.Phys., 132, (2010), 154104 
   

----- Orbital basis set information -----
Your calculation utilizes the basis: def2-TZVPPD
   F. Weigend and R. Ahlrichs, Phys. Chem. Chem. Phys. 7, 3297 (2005).
   D. Rappoport and F. Furche, J. Chem. Phys. 133 134105 (2010).

----- AuxJ basis set information -----
Your calculation utilizes the auxiliary basis: def2/J
   F. Weigend, Phys. Chem. Chem. Phys. 8, 1057 (2006).

cite the ECPs for Au [Def2-ECP] as follows:
Ce-Yb(ecp-28): M. Dolg, H. Stoll, H.Preuss, J. Chem. Phys., 1989, 90, 1730-1734.
Y-Cd(ecp-28), Hf-Hg(ecp-46): D. Andrae,U. Haeussermann, M. Dolg, H. Stoll, H. Preuss, Theor. Chim. Acta, 1990, 77, 123-141.
In-Sb(ecp-28), Tl-Bi(ecp-46): B. Metz, H. Stoll, M. Dolg, J. Chem. Phys., 2000, 113, 2563-2569.
Te-Xe(ecp-28), Po-Rn(ecp-46): K. A. Peterson, D. Figgen, E. Goll, H. Stoll, M. Dolg, J. Chem. Phys., 2003, 119, 11113-11123.
Rb(ecp-28), Cs(ecp-46): T. Leininger, A. Nicklass, W. Kuechle, H. Stoll, M. Dolg, A. Bergner, Chem. Phys. Lett., 1996, 255, 274-280.
Sr(ecp-28), Ba(ecp-46): M. Kaupp, P. V. Schleyer, H. Stoll and H. Preuss, J. Chem. Phys., 1991, 94, 1360-1366.
La(ecp-46): M. Dolg, H. Stoll, A. Savin, H. Preuss, Theor. Chim. Acta, 1989, 75, 173-194.
Lu(ecp-28): X. Cao, M. Dolg, J. Chem. Phys., 2001, 115, 7348-7355.

ECP parameters for Au [Def2-ECP] have been obtained from:
TURBOMOLE (7.0.2)

================================================================================
                                        WARNINGS
                       Please study these warnings very carefully!
================================================================================


WARNING: your system is open-shell and RHF/RKS was chosen
  ===> : WILL SWITCH to UHF/UKS


INFO   : the flag for use of LIBINT has been found!

================================================================================
                                       INPUT FILE
================================================================================
NAME = Au04C2_H_A.in
|  1> #
|  2> # Au04C2_H_A TPSS-D3BJ/Def2-TZVPPD
|  3> #
|  4> ! tpss d3bj def2-tzvppd def2/j grid4 nofinalgrid
|  5> 
|  6> *xyz 2 2
|  7> Au       0.000000    0.000000    1.750714 
|  8> Au      -0.000000    1.549973   -0.597614 
|  9> Au       1.342316   -0.774986   -0.597614 
| 10> Au      -1.342316   -0.774986   -0.597614 
| 11> H        0.000000    0.000000    3.328141 
| 12> *
| 13> 
| 14> %maxcore 5000
| 15> 
| 16> %pal
| 17> nprocs = 24
| 18> end
| 19> 
| 20> 
| 21>                          ****END OF INPUT****
================================================================================

                       ****************************
                       * Single Point Calculation *
                       ****************************

---------------------------------
CARTESIAN COORDINATES (ANGSTROEM)
---------------------------------
  Au     0.000000    0.000000    1.750714
  Au    -0.000000    1.549973   -0.597614
  Au     1.342316   -0.774986   -0.597614
  Au    -1.342316   -0.774986   -0.597614
  H      0.000000    0.000000    3.328141

----------------------------
CARTESIAN COORDINATES (A.U.)
----------------------------
  NO LB      ZA    FRAG     MASS         X           Y           Z
   0 Au   19.0000*   0   196.966    0.000000    0.000000    3.308370
   1 Au   19.0000*   0   196.966   -0.000000    2.929024   -1.129327
   2 Au   19.0000*   0   196.966    2.536610   -1.464511   -1.129327
   3 Au   19.0000*   0   196.966   -2.536610   -1.464511   -1.129327
   4 H     1.0000    0     1.008    0.000000    0.000000    6.289275
* core charge reduced due to ECP

--------------------------------
INTERNAL COORDINATES (ANGSTROEM)
--------------------------------
 Au     0   0   0     0.000000000000     0.00000000     0.00000000
 Au     1   0   0     2.813727189390     0.00000000     0.00000000
 Au     2   1   0     2.684631556757    61.50645655     0.00000000
 Au     2   1   3     2.684631556757    61.50645655    69.34876521
 H      1   2   3     1.577427000000   146.57388835   145.32561739

---------------------------
INTERNAL COORDINATES (A.U.)
---------------------------
 Au     0   0   0     0.000000000000     0.00000000     0.00000000
 Au     1   0   0     5.317173803515     0.00000000     0.00000000
 Au     2   1   0     5.073218412754    61.50645655     0.00000000
 Au     2   1   3     5.073218412754    61.50645655    69.34876521
 H      1   2   3     2.980905026253   146.57388835   145.32561739

---------------------
BASIS SET INFORMATION
---------------------
There are 2 groups of distinct atoms

 Group   1 Type Au  : 8s8p6d2f1g contracted to 6s5p3d2f1g pattern {311111/41111/411/11/1}
 Group   2 Type H   : 5s3p1d contracted to 3s3p1d pattern {311/111/1}

Atom   0Au   basis set group =>   1
Atom   1Au   basis set group =>   1
Atom   2Au   basis set group =>   1
Atom   3Au   basis set group =>   1
Atom   4H    basis set group =>   2
---------------------------------
AUXILIARY/J BASIS SET INFORMATION
---------------------------------
There are 2 groups of distinct atoms

 Group   1 Type Au  : 11s5p5d3f3g contracted to 8s5p5d2f3g pattern {41111111/11111/11111/21/111}
 Group   2 Type H   : 5s2p1d contracted to 3s1p1d pattern {311/2/1}

Atom   0Au   basis set group =>   1
Atom   1Au   basis set group =>   1
Atom   2Au   basis set group =>   1
Atom   3Au   basis set group =>   1
Atom   4H    basis set group =>   2
-------------------------
ECP PARAMETER INFORMATION
-------------------------

 Group 1, Type Au ECP Def2-ECP (replacing 60 core electrons, lmax=3)

Atom   0Au   ECP group =>   1
Atom   1Au   ECP group =>   1
Atom   2Au   ECP group =>   1
Atom   3Au   ECP group =>   1



           ************************************************************
           *        Program running with 24 parallel MPI-processes    *
           *              working on a common directory               *
           ************************************************************
------------------------------------------------------------------------------
                           ORCA GTO INTEGRAL CALCULATION
                           -- RI-GTO INTEGRALS CHOSEN --
------------------------------------------------------------------------------

                         BASIS SET STATISTICS AND STARTUP INFO

Gaussian basis set:
 # of primitive gaussian shells          ...  109
 # of primitive gaussian functions       ...  359
 # of contracted shells                  ...   75
 # of contracted basis functions         ...  253
 Highest angular momentum                ...    4
 Maximum contraction depth               ...    4
Auxiliary gaussian basis set:
 # of primitive gaussian shells          ...  116
 # of primitive gaussian functions       ...  412
 # of contracted shells                  ...   97
 # of contracted aux-basis functions     ...  367
 Highest angular momentum                ...    4
 Maximum contraction depth               ...    4
Ratio of auxiliary to basis functions    ...  1.45
Integral package used                  ... LIBINT
 One Electron integrals                  
   ECP integrals                         ... done
 Ordering auxiliary basis shells         ... done
 Integral threshhold             Thresh  ...  1.000e-10
 Primitive cut-off               TCut    ...  1.000e-11
 Pre-screening matrix                    ... done
 Shell pair data                         ... 
 Ordering of the shell pairs             ... done (   0.000 sec) 2709 of 2850 pairs
 Determination of significant pairs      ... done (   0.000 sec)
 Creation of shell pair data             ... done (   0.000 sec)
 Storage of shell pair data              ... done (   0.004 sec)
 Shell pair data done in (   0.005 sec)
 Computing two index integrals           ... done
 Cholesky decomposition of the V-matrix  ... done


Timings:
 Total evaluation time                   ...   1.244 sec (  0.021 min)
 One electron matrix time                ...   1.022 sec (  0.017 min) = 82.1%
 Schwartz matrix evaluation time         ...   0.179 sec (  0.003 min) = 14.4%
 Two index repulsion integral time       ...   0.002 sec (  0.000 min) =  0.2%
 Cholesky decomposition of V             ...   0.002 sec (  0.000 min) =  0.2%
 Three index repulsion integral time     ...   0.000 sec (  0.000 min) =  0.0%



           ************************************************************
           *        Program running with 24 parallel MPI-processes    *
           *              working on a common directory               *
           ************************************************************
-------------------------------------------------------------------------------
                                 ORCA SCF
-------------------------------------------------------------------------------

------------
SCF SETTINGS
------------
Hamiltonian:
 Density Functional     Method          .... DFT(GTOs)
 Exchange Functional    Exchange        .... TPSS
 Correlation Functional Correlation     .... TPSS
 LDA part of GGA corr.  LDAOpt          .... PW91-LDA
 Gradients option       PostSCFGGA      .... off
   Density functional embedding theory  .... OFF
   NL short-range parameter             ....  5.000000
 RI-approximation to the Coulomb term is turned on
   Number of auxiliary basis functions  .... 367


General Settings:
 Integral files         IntName         .... Au04C2_H_A
 Hartree-Fock type      HFTyp           .... UHF
 Total Charge           Charge          ....    2
 Multiplicity           Mult            ....    2
 Number of Electrons    NEL             ....   75
 Basis Dimension        Dim             ....  253
 Nuclear Repulsion      ENuc            ....    430.6740214821 Eh

Convergence Acceleration:
 DIIS                   CNVDIIS         .... on
   Start iteration      DIISMaxIt       ....    12
   Startup error        DIISStart       ....  0.200000
   # of expansion vecs  DIISMaxEq       ....     5
   Bias factor          DIISBfac        ....   1.050
   Max. coefficient     DIISMaxC        ....  10.000
 Newton-Raphson         CNVNR           .... off
 SOSCF                  CNVSOSCF        .... off
 Level Shifting         CNVShift        .... on
   Level shift para.    LevelShift      ....    0.2500
   Turn off err/grad.   ShiftErr        ....    0.0010
 Zerner damping         CNVZerner       .... off
 Static damping         CNVDamp         .... on
   Fraction old density DampFac         ....    0.7000
   Max. Damping (<1)    DampMax         ....    0.9800
   Min. Damping (>=0)   DampMin         ....    0.0000
   Turn off err/grad.   DampErr         ....    0.1000
 Fernandez-Rico         CNVRico         .... off

SCF Procedure:
 Maximum # iterations   MaxIter         ....   125
 SCF integral mode      SCFMode         .... Direct
   Integral package                     .... LIBINT
 Reset frequency        DirectResetFreq ....    20
 Integral Threshold     Thresh          ....  1.000e-10 Eh
 Primitive CutOff       TCut            ....  1.000e-11 Eh

Convergence Tolerance:
 Convergence Check Mode ConvCheckMode   .... Total+1el-Energy
 Convergence forced     ConvForced      .... 0
 Energy Change          TolE            ....  1.000e-06 Eh
 1-El. energy change                    ....  1.000e-03 Eh
 DIIS Error             TolErr          ....  1.000e-06


Diagonalization of the overlap matrix:
Smallest eigenvalue                        ... 9.340e-04
Time for diagonalization                   ...    0.010 sec
Threshold for overlap eigenvalues          ... 1.000e-08
Number of eigenvalues below threshold      ... 0
Time for construction of square roots      ...    0.008 sec
Total time needed                          ...    0.019 sec

-------------------
DFT GRID GENERATION
-------------------

General Integration Accuracy     IntAcc      ...  4.670
Radial Grid Type                 RadialGrid  ... Gauss-Chebyshev
Angular Grid (max. acc.)         AngularGrid ... Lebedev-302
Angular grid pruning method      GridPruning ... 3 (G Style)
Weight generation scheme         WeightScheme... Becke
Basis function cutoff            BFCut       ...    1.0000e-10
Integration weight cutoff        WCut        ...    1.0000e-14
Grids for H and He will be reduced by one unit

# of grid points (after initial pruning)     ...  50002 (   0.0 sec)
# of grid points (after weights+screening)   ...  49209 (   0.0 sec)
nearest neighbour list constructed           ...    0.0 sec
Grid point re-assignment to atoms done       ...    0.0 sec
Grid point division into batches done        ...    0.4 sec
Reduced shell lists constructed in    0.4 sec

Total number of grid points                  ...    49209
Total number of batches                      ...      771
Average number of points per batch           ...       63
Average number of grid points per atom       ...     9842
Average number of shells per batch           ...    50.76 (67.69%)
Average number of basis functions per batch  ...   179.76 (71.05%)
Average number of large shells per batch     ...    41.06 (80.88%)
Average number of large basis fcns per batch ...   139.76 (77.75%)
Maximum spatial batch extension              ...   6.29,  6.99,  2.88 au
Average spatial batch extension              ...   0.12,  0.12,  0.09 au

Time for grid setup =    0.453 sec

------------------------------
INITIAL GUESS: MODEL POTENTIAL
------------------------------
Loading Hartree-Fock densities                     ... done
  calling /sw/apps/orca/orca_4_2_0_linux_x86-64_openmpi314/orca Au04C2_H_A_atom79.inp > Au04C2_H_A_atom79.out in order to generate an atomic fitting density for atom 0 (Au with ECP) on-the-fly... 
    atom 0 (Au), assumed electronic state with S=2: 1s2 2s2 2p6 3s2 3p6 4s2 3d10 4p6 5s2 4d10 5p6 6s1 4f14 5d10           ... done
Calculating cut-offs                               ... done
Setting up the integral package                    ... done
Initializing the effective Hamiltonian             ... done
Starting the Coulomb interaction                   ... done (   0.0 sec)
Reading the grid                                   ... done
Mapping shells                                     ... done
Starting the XC term evaluation                    ... done (   0.0 sec)
  promolecular density results
     # of electrons  =    317.008697493
     EX              =  -1463.558686652
     EC              =    -19.353623885
     EX+EC           =  -1482.912310537
Transforming the Hamiltonian                       ... done (   0.0 sec)
Diagonalizing the Hamiltonian                      ... done (   0.0 sec)
Back transforming the eigenvectors                 ... done (   0.0 sec)
Now organizing SCF variables                       ... done
                      ------------------
                      INITIAL GUESS DONE (   1.8 sec)
                      ------------------
--------------
SCF ITERATIONS
--------------
ITER       Energy         Delta-E        Max-DP      RMS-DP      [F,P]     Damp
               ***  Starting incremental Fock matrix formation  ***
  0   -542.4496543824   0.000000000000 0.10837809  0.00123848  0.5859119 0.7000
  1   -542.5671203277  -0.117465945296 0.07564756  0.00083451  0.4039023 0.7000
  2   -542.6203766964  -0.053256368676 0.04965497  0.00053679  0.2781344 0.7000
                               ***Turning on DIIS***
  3   -542.6580676443  -0.037690947914 0.03412160  0.00036832  0.1929388 0.7000
  4   -542.6851505076  -0.027082863294 0.02528222  0.00025585  0.1344559 0.7000
  5   -542.7039856460  -0.018835138416 0.05846902  0.00059970  0.0939976 0.0000
  6   -542.7478704698  -0.043884823759 0.00499371  0.00003387  0.0016192 0.0000
  7   -542.7479358211  -0.000065351327 0.00193354  0.00001829  0.0013793 0.0000
  8   -542.7479711923  -0.000035371170 0.00515404  0.00003932  0.0007678 0.0000
  9   -542.7480049872  -0.000033794939 0.00156920  0.00001083  0.0006736 0.0000
 10   -542.7480090778  -0.000004090598 0.00063923  0.00000361  0.0004066 0.0000
 11   -542.7480097877  -0.000000709900 0.00029339  0.00000170  0.0000669 0.0000
                 **** Energy Check signals convergence ****

               *****************************************************
               *                     SUCCESS                       *
               *           SCF CONVERGED AFTER  12 CYCLES          *
               *****************************************************


----------------
TOTAL SCF ENERGY
----------------

Total Energy       :         -542.74800988 Eh          -14768.92419 eV

Components:
Nuclear Repulsion  :          430.67402148 Eh           11719.23592 eV
Electronic Energy  :         -973.42203136 Eh          -26488.16011 eV
One Electron Energy:        -1784.88327547 Eh          -48569.14313 eV
Two Electron Energy:          811.46124411 Eh           22080.98303 eV

Virial components:
Potential Energy   :         -726.26042313 Eh          -19762.55082 eV
Kinetic Energy     :          183.51241325 Eh            4993.62664 eV
Virial Ratio       :            3.95755475


DFT components:
N(Alpha)           :       37.999993062317 electrons
N(Beta)            :       36.999992527369 electrons
N(Total)           :       74.999985589686 electrons
E(X)               :      -47.833662823785 Eh       
E(C)               :       -3.234583786360 Eh       
E(XC)              :      -51.068246610145 Eh       
DFET-embed. en.    :        0.000000000000 Eh       

---------------
SCF CONVERGENCE
---------------

  Last Energy change         ...   -9.0637e-08  Tolerance :   1.0000e-06
  Last MAX-Density change    ...    1.1821e-04  Tolerance :   1.0000e-05
  Last RMS-Density change    ...    1.0906e-06  Tolerance :   1.0000e-06
  Last DIIS Error            ...    4.4775e-05  Tolerance :   1.0000e-06

             **** THE GBW FILE WAS UPDATED (Au04C2_H_A.gbw) ****
             **** DENSITY FILE WAS UPDATED (Au04C2_H_A.scfp) ****
             **** ENERGY FILE WAS UPDATED (Au04C2_H_A.en.tmp) ****
----------------------
UHF SPIN CONTAMINATION
----------------------

Warning: in a DFT calculation there is little theoretical justification to 
         calculate <S**2> as in Hartree-Fock theory. We will do it anyways
         but you should keep in mind that the values have only limited relevance

Expectation value of <S**2>     :     0.755290
Ideal value S*(S+1) for S=0.5   :     0.750000
Deviation                       :     0.005290

             **** THE GBW FILE WAS UPDATED (Au04C2_H_A.gbw) ****
             **** DENSITY FILE WAS UPDATED (Au04C2_H_A.scfp) ****
----------------
ORBITAL ENERGIES
----------------
                 SPIN UP ORBITALS
  NO   OCC          E(Eh)            E(eV) 
   0   1.0000      -4.443425      -120.9117 
   1   1.0000      -4.413811      -120.1059 
   2   1.0000      -4.413472      -120.0967 
   3   1.0000      -4.413470      -120.0966 
   4   1.0000      -2.665826       -72.5408 
   5   1.0000      -2.642305       -71.9008 
   6   1.0000      -2.642304       -71.9007 
   7   1.0000      -2.631754       -71.6137 
   8   1.0000      -2.626691       -71.4759 
   9   1.0000      -2.626687       -71.4758 
  10   1.0000      -2.620163       -71.2983 
  11   1.0000      -2.620152       -71.2980 
  12   1.0000      -2.619823       -71.2890 
  13   1.0000      -2.618774       -71.2605 
  14   1.0000      -2.618773       -71.2604 
  15   1.0000      -2.618071       -71.2413 
  16   1.0000      -0.802441       -21.8355 
  17   1.0000      -0.735983       -20.0271 
  18   1.0000      -0.715667       -19.4743 
  19   1.0000      -0.715664       -19.4742 
  20   1.0000      -0.699824       -19.0432 
  21   1.0000      -0.697294       -18.9743 
  22   1.0000      -0.697292       -18.9743 
  23   1.0000      -0.677406       -18.4331 
  24   1.0000      -0.677400       -18.4330 
  25   1.0000      -0.672588       -18.3020 
  26   1.0000      -0.667681       -18.1685 
  27   1.0000      -0.651172       -17.7193 
  28   1.0000      -0.651170       -17.7192 
  29   1.0000      -0.637878       -17.3576 
  30   1.0000      -0.637876       -17.3575 
  31   1.0000      -0.635067       -17.2810 
  32   1.0000      -0.635062       -17.2809 
  33   1.0000      -0.635005       -17.2794 
  34   1.0000      -0.624052       -16.9813 
  35   1.0000      -0.624048       -16.9812 
  36   1.0000      -0.609938       -16.5973 
  37   1.0000      -0.605454       -16.4752 
  38   0.0000      -0.513688       -13.9782 
  39   0.0000      -0.513688       -13.9782 
  40   0.0000      -0.447702       -12.1826 
  41   0.0000      -0.360564        -9.8115 
  42   0.0000      -0.359987        -9.7957 
  43   0.0000      -0.359985        -9.7957 
  44   0.0000      -0.337319        -9.1789 
  45   0.0000      -0.337317        -9.1789 
  46   0.0000      -0.260841        -7.0978 
  47   0.0000      -0.216845        -5.9007 
  48   0.0000      -0.216845        -5.9007 
  49   0.0000      -0.201631        -5.4867 
  50   0.0000      -0.201629        -5.4866 
  51   0.0000      -0.198684        -5.4065 
  52   0.0000      -0.193319        -5.2605 
  53   0.0000      -0.150082        -4.0839 
  54   0.0000      -0.118405        -3.2220 
  55   0.0000      -0.117086        -3.1861 
  56   0.0000      -0.114726        -3.1219 
  57   0.0000      -0.114726        -3.1219 
  58   0.0000      -0.109654        -2.9838 
  59   0.0000      -0.109652        -2.9838 
  60   0.0000      -0.077142        -2.0991 
  61   0.0000      -0.077135        -2.0989 
  62   0.0000      -0.066731        -1.8158 
  63   0.0000      -0.062539        -1.7018 
  64   0.0000      -0.062537        -1.7017 
  65   0.0000      -0.036802        -1.0014 
  66   0.0000      -0.036799        -1.0013 
  67   0.0000      -0.036372        -0.9897 
  68   0.0000      -0.023038        -0.6269 
  69   0.0000      -0.023032        -0.6267 
  70   0.0000      -0.020107        -0.5471 
  71   0.0000       0.022528         0.6130 
  72   0.0000       0.022528         0.6130 
  73   0.0000       0.022664         0.6167 
  74   0.0000       0.051166         1.3923 
  75   0.0000       0.051175         1.3925 
  76   0.0000       0.065699         1.7878 
  77   0.0000       0.091591         2.4923 
  78   0.0000       0.091594         2.4924 
  79   0.0000       0.093108         2.5336 
  80   0.0000       0.127609         3.4724 
  81   0.0000       0.147675         4.0184 
  82   0.0000       0.147678         4.0185 
  83   0.0000       0.151310         4.1174 
  84   0.0000       0.182541         4.9672 
  85   0.0000       0.182542         4.9672 
  86   0.0000       0.188247         5.1225 
  87   0.0000       0.203754         5.5444 
  88   0.0000       0.203758         5.5445 
  89   0.0000       0.218522         5.9463 
  90   0.0000       0.219104         5.9621 
  91   0.0000       0.219105         5.9621 
  92   0.0000       0.249221         6.7817 
  93   0.0000       0.463761        12.6196 
  94   0.0000       0.463765        12.6197 
  95   0.0000       0.468312        12.7434 
  96   0.0000       0.524286        14.2665 
  97   0.0000       0.524289        14.2666 
  98   0.0000       0.555520        15.1165 
  99   0.0000       0.574547        15.6342 
 100   0.0000       0.574550        15.6343 
 101   0.0000       0.614346        16.7172 
 102   0.0000       0.625768        17.0280 
 103   0.0000       0.625770        17.0281 
 104   0.0000       0.631807        17.1923 
 105   0.0000       0.655129        17.8270 
 106   0.0000       0.669242        18.2110 
 107   0.0000       0.669246        18.2111 
 108   0.0000       0.700433        19.0598 
 109   0.0000       0.709213        19.2987 
 110   0.0000       0.709213        19.2987 
 111   0.0000       0.734667        19.9913 
 112   0.0000       0.734668        19.9913 
 113   0.0000       0.749266        20.3886 
 114   0.0000       0.770151        20.9569 
 115   0.0000       0.780456        21.2373 
 116   0.0000       0.780456        21.2373 
 117   0.0000       0.791771        21.5452 
 118   0.0000       0.829469        22.5710 
 119   0.0000       0.831735        22.6327 
 120   0.0000       0.831741        22.6328 
 121   0.0000       0.872053        23.7298 
 122   0.0000       0.872058        23.7299 
 123   0.0000       0.892081        24.2748 
 124   0.0000       0.904804        24.6210 
 125   0.0000       0.904816        24.6213 
 126   0.0000       0.939677        25.5699 
 127   0.0000       0.952403        25.9162 
 128   0.0000       0.952419        25.9166 
 129   0.0000       0.979248        26.6467 
 130   0.0000       0.979262        26.6471 
 131   0.0000       1.027623        27.9630 
 132   0.0000       1.038109        28.2484 
 133   0.0000       1.042029        28.3551 
 134   0.0000       1.042031        28.3551 
 135   0.0000       1.062028        28.8993 
 136   0.0000       1.072463        29.1832 
 137   0.0000       1.072463        29.1832 
 138   0.0000       1.106154        30.1000 
 139   0.0000       1.106170        30.1004 
 140   0.0000       1.110379        30.2150 
 141   0.0000       1.123387        30.5689 
 142   0.0000       1.123391        30.5690 
 143   0.0000       1.145091        31.1595 
 144   0.0000       1.182979        32.1905 
 145   0.0000       1.182997        32.1910 
 146   0.0000       1.186794        32.2943 
 147   0.0000       1.219495        33.1841 
 148   0.0000       1.219503        33.1844 
 149   0.0000       1.266851        34.4728 
 150   0.0000       1.348180        36.6859 
 151   0.0000       1.348189        36.6861 
 152   0.0000       1.471719        40.0475 
 153   0.0000       1.471742        40.0481 
 154   0.0000       1.559310        42.4310 
 155   0.0000       1.611678        43.8560 
 156   0.0000       1.825153        49.6649 
 157   0.0000       2.239998        60.9535 
 158   0.0000       2.305776        62.7434 
 159   0.0000       2.305807        62.7442 
 160   0.0000       2.453137        66.7532 
 161   0.0000       2.785059        75.7853 
 162   0.0000       2.785152        75.7878 
 163   0.0000       2.921384        79.4949 
 164   0.0000       2.921745        79.5047 
 165   0.0000       2.972520        80.8864 
 166   0.0000       3.003562        81.7311 
 167   0.0000       3.006154        81.8016 
 168   0.0000       3.006159        81.8018 
 169   0.0000       3.087970        84.0279 
 170   0.0000       3.095670        84.2375 
 171   0.0000       3.095670        84.2375 
 172   0.0000       3.104115        84.4673 
 173   0.0000       3.139411        85.4277 
 174   0.0000       3.139481        85.4296 
 175   0.0000       3.140624        85.4607 
 176   0.0000       3.155652        85.8697 
 177   0.0000       3.155665        85.8700 
 178   0.0000       3.185643        86.6857 
 179   0.0000       3.211326        87.3846 
 180   0.0000       3.304615        89.9231 
 181   0.0000       3.312691        90.1429 
 182   0.0000       3.312828        90.1466 
 183   0.0000       3.324879        90.4746 
 184   0.0000       3.325038        90.4789 
 185   0.0000       3.330469        90.6267 
 186   0.0000       3.330929        90.6392 
 187   0.0000       3.331247        90.6479 
 188   0.0000       3.409258        92.7706 
 189   0.0000       3.419206        93.0413 
 190   0.0000       3.419447        93.0479 
 191   0.0000       3.502763        95.3150 
 192   0.0000       3.534155        96.1692 
 193   0.0000       3.534306        96.1734 
 194   0.0000       3.608774        98.1997 
 195   0.0000       3.608838        98.2015 
 196   0.0000       3.656604        99.5013 
 197   0.0000       3.656634        99.5021 
 198   0.0000       3.658839        99.5621 
 199   0.0000       3.661261        99.6280 
 200   0.0000       3.661941        99.6465 
 201   0.0000       3.662332        99.6571 
 202   0.0000       3.664144        99.7064 
 203   0.0000       3.665230        99.7360 
 204   0.0000       3.665657        99.7476 
 205   0.0000       3.668276        99.8189 
 206   0.0000       3.672694        99.9391 
 207   0.0000       3.672921        99.9453 
 208   0.0000       3.673727        99.9672 
 209   0.0000       3.674344        99.9840 
 210   0.0000       3.674409        99.9857 
 211   0.0000       3.674889        99.9988 
 212   0.0000       3.678061       100.0851 
 213   0.0000       3.678972       100.1099 
 214   0.0000       3.679584       100.1266 
 215   0.0000       3.679987       100.1375 
 216   0.0000       3.691043       100.4384 
 217   0.0000       3.691250       100.4440 
 218   0.0000       3.696353       100.5829 
 219   0.0000       3.705710       100.8375 
 220   0.0000       3.705798       100.8399 
 221   0.0000       3.706514       100.8594 
 222   0.0000       3.706536       100.8600 
 223   0.0000       3.727813       101.4390 
 224   0.0000       3.743047       101.8535 
 225   0.0000       3.743113       101.8553 
 226   0.0000       3.828610       104.1818 
 227   0.0000       3.828727       104.1850 
 228   0.0000       3.894776       105.9823 
 229   0.0000       4.152436       112.9935 
 230   0.0000       4.277462       116.3957 
 231   0.0000       4.278171       116.4150 
 232   0.0000       5.176632       140.8633 
 233   0.0000      27.078263       736.8370 
 234   0.0000      27.078343       736.8392 
 235   0.0000      27.217611       740.6289 
 236   0.0000      27.217612       740.6289 
 237   0.0000      27.422349       746.2001 
 238   0.0000      28.198210       767.3123 
 239   0.0000      28.198265       767.3138 
 240   0.0000      28.395766       772.6881 
 241   0.0000      28.687573       780.6286 
 242   0.0000      29.290430       797.0331 
 243   0.0000      29.290449       797.0336 
 244   0.0000      31.978667       870.1838 
 245   0.0000      43.633107      1187.3172 
 246   0.0000      44.125697      1200.7213 
 247   0.0000      44.125704      1200.7214 
 248   0.0000      44.135024      1200.9750 
 249   0.0000     204.718692      5570.6788 
 250   0.0000     204.926695      5576.3389 
 251   0.0000     204.936620      5576.6089 
 252   0.0000     204.936622      5576.6090 

                 SPIN DOWN ORBITALS
  NO   OCC          E(Eh)            E(eV) 
   0   1.0000      -4.437920      -120.7619 
   1   1.0000      -4.413295      -120.0919 
   2   1.0000      -4.412955      -120.0826 
   3   1.0000      -4.412953      -120.0826 
   4   1.0000      -2.654122       -72.2223 
   5   1.0000      -2.639154       -71.8150 
   6   1.0000      -2.639154       -71.8150 
   7   1.0000      -2.630910       -71.5907 
   8   1.0000      -2.625921       -71.4549 
   9   1.0000      -2.625917       -71.4548 
  10   1.0000      -2.619920       -71.2916 
  11   1.0000      -2.619908       -71.2913 
  12   1.0000      -2.619009       -71.2668 
  13   1.0000      -2.618010       -71.2397 
  14   1.0000      -2.618009       -71.2396 
  15   1.0000      -2.617918       -71.2372 
  16   1.0000      -0.788847       -21.4656 
  17   1.0000      -0.728000       -19.8099 
  18   1.0000      -0.713765       -19.4225 
  19   1.0000      -0.713764       -19.4225 
  20   1.0000      -0.695188       -18.9170 
  21   1.0000      -0.695186       -18.9170 
  22   1.0000      -0.689832       -18.7713 
  23   1.0000      -0.670937       -18.2571 
  24   1.0000      -0.669908       -18.2291 
  25   1.0000      -0.669904       -18.2290 
  26   1.0000      -0.661105       -17.9896 
  27   1.0000      -0.645374       -17.5615 
  28   1.0000      -0.645370       -17.5614 
  29   1.0000      -0.637264       -17.3408 
  30   1.0000      -0.637262       -17.3408 
  31   1.0000      -0.634159       -17.2563 
  32   1.0000      -0.634155       -17.2562 
  33   1.0000      -0.633912       -17.2496 
  34   1.0000      -0.620200       -16.8765 
  35   1.0000      -0.620196       -16.8764 
  36   1.0000      -0.609975       -16.5983 
  37   0.0000      -0.574977       -15.6459 
  38   0.0000      -0.512296       -13.9403 
  39   0.0000      -0.512296       -13.9403 
  40   0.0000      -0.434243       -11.8164 
  41   0.0000      -0.359514        -9.7829 
  42   0.0000      -0.354030        -9.6337 
  43   0.0000      -0.354027        -9.6336 
  44   0.0000      -0.332424        -9.0457 
  45   0.0000      -0.332423        -9.0457 
  46   0.0000      -0.246554        -6.7091 
  47   0.0000      -0.209348        -5.6966 
  48   0.0000      -0.209347        -5.6966 
  49   0.0000      -0.200541        -5.4570 
  50   0.0000      -0.200539        -5.4570 
  51   0.0000      -0.198248        -5.3946 
  52   0.0000      -0.182234        -4.9588 
  53   0.0000      -0.141451        -3.8491 
  54   0.0000      -0.116779        -3.1777 
  55   0.0000      -0.111759        -3.0411 
  56   0.0000      -0.110286        -3.0010 
  57   0.0000      -0.110284        -3.0010 
  58   0.0000      -0.107257        -2.9186 
  59   0.0000      -0.107257        -2.9186 
  60   0.0000      -0.070808        -1.9268 
  61   0.0000      -0.070803        -1.9266 
  62   0.0000      -0.063075        -1.7164 
  63   0.0000      -0.055881        -1.5206 
  64   0.0000      -0.055878        -1.5205 
  65   0.0000      -0.031694        -0.8624 
  66   0.0000      -0.029181        -0.7941 
  67   0.0000      -0.029177        -0.7939 
  68   0.0000      -0.020877        -0.5681 
  69   0.0000      -0.020871        -0.5679 
  70   0.0000      -0.019404        -0.5280 
  71   0.0000       0.025341         0.6896 
  72   0.0000       0.025342         0.6896 
  73   0.0000       0.030856         0.8396 
  74   0.0000       0.057564         1.5664 
  75   0.0000       0.057568         1.5665 
  76   0.0000       0.066662         1.8140 
  77   0.0000       0.096048         2.6136 
  78   0.0000       0.096050         2.6136 
  79   0.0000       0.111502         3.0341 
  80   0.0000       0.131893         3.5890 
  81   0.0000       0.149780         4.0757 
  82   0.0000       0.149782         4.0758 
  83   0.0000       0.159641         4.3440 
  84   0.0000       0.185807         5.0561 
  85   0.0000       0.185808         5.0561 
  86   0.0000       0.196504         5.3472 
  87   0.0000       0.205843         5.6013 
  88   0.0000       0.205850         5.6014 
  89   0.0000       0.219584         5.9752 
  90   0.0000       0.231541         6.3006 
  91   0.0000       0.231542         6.3006 
  92   0.0000       0.259982         7.0745 
  93   0.0000       0.469780        12.7834 
  94   0.0000       0.475020        12.9260 
  95   0.0000       0.475025        12.9261 
  96   0.0000       0.527983        14.3672 
  97   0.0000       0.527984        14.3672 
  98   0.0000       0.559555        15.2263 
  99   0.0000       0.581454        15.8222 
 100   0.0000       0.581457        15.8223 
 101   0.0000       0.625043        17.0083 
 102   0.0000       0.631809        17.1924 
 103   0.0000       0.631810        17.1924 
 104   0.0000       0.642435        17.4815 
 105   0.0000       0.666469        18.1356 
 106   0.0000       0.675652        18.3854 
 107   0.0000       0.675653        18.3854 
 108   0.0000       0.709391        19.3035 
 109   0.0000       0.713470        19.4145 
 110   0.0000       0.713474        19.4146 
 111   0.0000       0.738853        20.1052 
 112   0.0000       0.738853        20.1052 
 113   0.0000       0.764171        20.7942 
 114   0.0000       0.777902        21.1678 
 115   0.0000       0.781896        21.2765 
 116   0.0000       0.781898        21.2765 
 117   0.0000       0.793478        21.5916 
 118   0.0000       0.838707        22.8224 
 119   0.0000       0.838803        22.8250 
 120   0.0000       0.838809        22.8251 
 121   0.0000       0.875014        23.8103 
 122   0.0000       0.875021        23.8105 
 123   0.0000       0.894814        24.3491 
 124   0.0000       0.912752        24.8372 
 125   0.0000       0.912762        24.8375 
 126   0.0000       0.944278        25.6951 
 127   0.0000       0.955158        25.9912 
 128   0.0000       0.955173        25.9916 
 129   0.0000       0.983443        26.7609 
 130   0.0000       0.983457        26.7612 
 131   0.0000       1.034372        28.1467 
 132   0.0000       1.038830        28.2680 
 133   0.0000       1.045414        28.4472 
 134   0.0000       1.045414        28.4472 
 135   0.0000       1.064172        28.9576 
 136   0.0000       1.078465        29.3465 
 137   0.0000       1.078468        29.3466 
 138   0.0000       1.107614        30.1397 
 139   0.0000       1.107635        30.1403 
 140   0.0000       1.118163        30.4268 
 141   0.0000       1.129691        30.7405 
 142   0.0000       1.129694        30.7405 
 143   0.0000       1.146560        31.1995 
 144   0.0000       1.184394        32.2290 
 145   0.0000       1.184416        32.2296 
 146   0.0000       1.196127        32.5483 
 147   0.0000       1.227479        33.4014 
 148   0.0000       1.227484        33.4015 
 149   0.0000       1.270038        34.5595 
 150   0.0000       1.351543        36.7774 
 151   0.0000       1.351551        36.7776 
 152   0.0000       1.475497        40.1503 
 153   0.0000       1.475516        40.1508 
 154   0.0000       1.560035        42.4507 
 155   0.0000       1.630810        44.3766 
 156   0.0000       1.830648        49.8145 
 157   0.0000       2.255441        61.3737 
 158   0.0000       2.307485        62.7899 
 159   0.0000       2.307517        62.7907 
 160   0.0000       2.480585        67.5001 
 161   0.0000       2.807493        76.3958 
 162   0.0000       2.807568        76.3978 
 163   0.0000       2.944998        80.1375 
 164   0.0000       2.945372        80.1476 
 165   0.0000       2.973939        80.9250 
 166   0.0000       3.008852        81.8750 
 167   0.0000       3.008987        81.8787 
 168   0.0000       3.009092        81.8815 
 169   0.0000       3.095048        84.2205 
 170   0.0000       3.097653        84.2914 
 171   0.0000       3.097656        84.2915 
 172   0.0000       3.111595        84.6708 
 173   0.0000       3.142703        85.5173 
 174   0.0000       3.142774        85.5192 
 175   0.0000       3.143955        85.5514 
 176   0.0000       3.156632        85.8963 
 177   0.0000       3.156650        85.8968 
 178   0.0000       3.188664        86.7680 
 179   0.0000       3.218966        87.5925 
 180   0.0000       3.305864        89.9571 
 181   0.0000       3.316192        90.2382 
 182   0.0000       3.316318        90.2416 
 183   0.0000       3.327060        90.5339 
 184   0.0000       3.327183        90.5373 
 185   0.0000       3.332879        90.6923 
 186   0.0000       3.333333        90.7046 
 187   0.0000       3.338061        90.8332 
 188   0.0000       3.418370        93.0186 
 189   0.0000       3.421517        93.1042 
 190   0.0000       3.421767        93.1110 
 191   0.0000       3.503779        95.3427 
 192   0.0000       3.541899        96.3800 
 193   0.0000       3.542071        96.3846 
 194   0.0000       3.626587        98.6844 
 195   0.0000       3.626608        98.6850 
 196   0.0000       3.662699        99.6671 
 197   0.0000       3.663091        99.6778 
 198   0.0000       3.663899        99.6998 
 199   0.0000       3.664468        99.7152 
 200   0.0000       3.665428        99.7414 
 201   0.0000       3.665899        99.7542 
 202   0.0000       3.666347        99.7664 
 203   0.0000       3.670685        99.8844 
 204   0.0000       3.670848        99.8889 
 205   0.0000       3.670883        99.8898 
 206   0.0000       3.674148        99.9787 
 207   0.0000       3.674350        99.9842 
 208   0.0000       3.674975       100.0011 
 209   0.0000       3.675154       100.0060 
 210   0.0000       3.675253       100.0087 
 211   0.0000       3.675905       100.0264 
 212   0.0000       3.678846       100.1065 
 213   0.0000       3.681046       100.1663 
 214   0.0000       3.681533       100.1796 
 215   0.0000       3.681856       100.1884 
 216   0.0000       3.694046       100.5201 
 217   0.0000       3.694303       100.5271 
 218   0.0000       3.697438       100.6124 
 219   0.0000       3.706763       100.8662 
 220   0.0000       3.706773       100.8664 
 221   0.0000       3.709366       100.9370 
 222   0.0000       3.709499       100.9406 
 223   0.0000       3.730118       101.5017 
 224   0.0000       3.748128       101.9918 
 225   0.0000       3.748199       101.9937 
 226   0.0000       3.829894       104.2167 
 227   0.0000       3.830010       104.2199 
 228   0.0000       3.895449       106.0005 
 229   0.0000       4.168256       113.4240 
 230   0.0000       4.293630       116.8356 
 231   0.0000       4.294337       116.8548 
 232   0.0000       5.192710       141.3008 
 233   0.0000      27.079190       736.8622 
 234   0.0000      27.079270       736.8644 
 235   0.0000      27.221900       740.7456 
 236   0.0000      27.221904       740.7457 
 237   0.0000      27.423398       746.2286 
 238   0.0000      28.201290       767.3961 
 239   0.0000      28.201344       767.3976 
 240   0.0000      28.396135       772.6981 
 241   0.0000      28.688464       780.6528 
 242   0.0000      29.291029       797.0494 
 243   0.0000      29.291046       797.0499 
 244   0.0000      31.985444       870.3682 
 245   0.0000      43.633845      1187.3373 
 246   0.0000      44.125987      1200.7291 
 247   0.0000      44.125994      1200.7293 
 248   0.0000      44.137457      1201.0413 
 249   0.0000     204.719250      5570.6940 
 250   0.0000     204.928432      5576.3861 
 251   0.0000     204.936816      5576.6143 
 252   0.0000     204.936818      5576.6143 

                    ********************************
                    * MULLIKEN POPULATION ANALYSIS *
                    ********************************

--------------------------------------------
MULLIKEN ATOMIC CHARGES AND SPIN POPULATIONS
--------------------------------------------
   0 Au:    0.254756    0.555049
   1 Au:    0.506245    0.049067
   2 Au:    0.506583    0.049060
   3 Au:    0.506575    0.049060
   4 H :    0.225842    0.297764
Sum of atomic charges         :    2.0000000
Sum of atomic spin populations:    1.0000000

-----------------------------------------------------
MULLIKEN REDUCED ORBITAL CHARGES AND SPIN POPULATIONS
-----------------------------------------------------
CHARGE
  0 Aus       :     3.079742  s :     3.079742
      pz      :     2.120907  p :     6.166351
      px      :     2.022723
      py      :     2.022721
      dz2     :     1.646932  d :     9.485038
      dxz     :     1.932966
      dyz     :     1.932963
      dx2y2   :     1.986089
      dxy     :     1.986089
      f0      :     0.005800  f :     0.013752
      f+1     :     0.002198
      f-1     :     0.002198
      f+2     :     0.001516
      f-2     :     0.001516
      f+3     :     0.000263
      f-3     :     0.000261
      g0      :     0.000211  g :     0.000362
      g+1     :     0.000042
      g-1     :     0.000043
      g+2     :     0.000025
      g-2     :     0.000025
      g+3     :     0.000007
      g-3     :     0.000007
      g+4     :     0.000001
      g-4     :     0.000001
  1 Aus       :     2.653170  s :     2.653170
      pz      :     2.026528  p :     6.114084
      px      :     2.026983
      py      :     2.060573
      dz2     :     1.922963  d :     9.714619
      dxz     :     1.988253
      dyz     :     1.953289
      dx2y2   :     1.966267
      dxy     :     1.883846
      f0      :     0.001506  f :     0.011726
      f+1     :     0.000812
      f-1     :     0.001912
      f+2     :     0.000943
      f-2     :     0.001653
      f+3     :     0.002523
      f-3     :     0.002376
      g0      :     0.000012  g :     0.000157
      g+1     :     0.000006
      g-1     :     0.000023
      g+2     :     0.000014
      g-2     :     0.000018
      g+3     :     0.000018
      g-3     :     0.000007
      g+4     :     0.000028
      g-4     :     0.000031
  2 Aus       :     2.652953  s :     2.652953
      pz      :     2.026508  p :     6.113962
      px      :     2.052113
      py      :     2.035341
      dz2     :     1.922976  d :     9.714621
      dxz     :     1.962026
      dyz     :     1.979512
      dx2y2   :     1.904448
      dxy     :     1.945659
      f0      :     0.001506  f :     0.011724
      f+1     :     0.001637
      f-1     :     0.001087
      f+2     :     0.001476
      f-2     :     0.001121
      f+3     :     0.002522
      f-3     :     0.002376
      g0      :     0.000012  g :     0.000157
      g+1     :     0.000019
      g-1     :     0.000011
      g+2     :     0.000017
      g-2     :     0.000015
      g+3     :     0.000018
      g-3     :     0.000007
      g+4     :     0.000030
      g-4     :     0.000028
  3 Aus       :     2.652959  s :     2.652959
      pz      :     2.026508  p :     6.113964
      px      :     2.052115
      py      :     2.035342
      dz2     :     1.922976  d :     9.714621
      dxz     :     1.962026
      dyz     :     1.979512
      dx2y2   :     1.904448
      dxy     :     1.945659
      f0      :     0.001506  f :     0.011724
      f+1     :     0.001637
      f-1     :     0.001087
      f+2     :     0.001476
      f-2     :     0.001121
      f+3     :     0.002522
      f-3     :     0.002376
      g0      :     0.000012  g :     0.000157
      g+1     :     0.000019
      g-1     :     0.000011
      g+2     :     0.000017
      g-2     :     0.000015
      g+3     :     0.000018
      g-3     :     0.000007
      g+4     :     0.000030
      g-4     :     0.000028
  4 H s       :     0.749436  s :     0.749436
      pz      :     0.003666  p :     0.020829
      px      :     0.008583
      py      :     0.008581
      dz2     :     0.001443  d :     0.003892
      dxz     :     0.001123
      dyz     :     0.001122
      dx2y2   :     0.000102
      dxy     :     0.000102

SPIN
  0 Aus       :     0.323441  s :     0.323441
      pz      :     0.043863  p :     0.047239
      px      :     0.001688
      py      :     0.001688
      dz2     :     0.173036  d :     0.183569
      dxz     :     0.003624
      dyz     :     0.003625
      dx2y2   :     0.001642
      dxy     :     0.001642
      f0      :     0.000982  f :     0.000812
      f+1     :    -0.000049
      f-1     :    -0.000049
      f+2     :    -0.000040
      f-2     :    -0.000040
      f+3     :     0.000006
      f-3     :     0.000001
      g0      :     0.000006  g :    -0.000012
      g+1     :    -0.000003
      g-1     :    -0.000003
      g+2     :    -0.000006
      g-2     :    -0.000006
      g+3     :    -0.000000
      g-3     :     0.000000
      g+4     :     0.000000
      g-4     :     0.000000
  1 Aus       :     0.027879  s :     0.027879
      pz      :    -0.000974  p :     0.003627
      px      :    -0.000020
      py      :     0.004621
      dz2     :     0.019116  d :     0.017529
      dxz     :    -0.000425
      dyz     :    -0.002562
      dx2y2   :     0.003215
      dxy     :    -0.001815
      f0      :     0.000034  f :     0.000032
      f+1     :    -0.000015
      f-1     :    -0.000040
      f+2     :     0.000056
      f-2     :    -0.000003
      f+3     :    -0.000002
      f-3     :     0.000003
      g0      :     0.000001  g :     0.000001
      g+1     :    -0.000000
      g-1     :    -0.000001
      g+2     :     0.000001
      g-2     :    -0.000000
      g+3     :    -0.000000
      g-3     :     0.000000
      g+4     :    -0.000000
      g-4     :     0.000000
  2 Aus       :     0.027873  s :     0.027873
      pz      :    -0.000975  p :     0.003625
      px      :     0.003459
      py      :     0.001140
      dz2     :     0.019118  d :     0.017530
      dxz     :    -0.002027
      dyz     :    -0.000959
      dx2y2   :    -0.000558
      dxy     :     0.001956
      f0      :     0.000034  f :     0.000032
      f+1     :    -0.000034
      f-1     :    -0.000021
      f+2     :     0.000011
      f-2     :     0.000041
      f+3     :    -0.000002
      f-3     :     0.000003
      g0      :     0.000001  g :     0.000001
      g+1     :    -0.000001
      g-1     :    -0.000000
      g+2     :     0.000000
      g-2     :     0.000001
      g+3     :    -0.000000
      g-3     :     0.000000
      g+4     :    -0.000000
      g-4     :    -0.000000
  3 Aus       :     0.027873  s :     0.027873
      pz      :    -0.000975  p :     0.003625
      px      :     0.003460
      py      :     0.001140
      dz2     :     0.019118  d :     0.017530
      dxz     :    -0.002027
      dyz     :    -0.000959
      dx2y2   :    -0.000558
      dxy     :     0.001956
      f0      :     0.000034  f :     0.000032
      f+1     :    -0.000034
      f-1     :    -0.000021
      f+2     :     0.000011
      f-2     :     0.000041
      f+3     :    -0.000002
      f-3     :     0.000003
      g0      :     0.000001  g :     0.000001
      g+1     :    -0.000001
      g-1     :    -0.000000
      g+2     :     0.000000
      g-2     :     0.000001
      g+3     :    -0.000000
      g-3     :     0.000000
      g+4     :    -0.000000
      g-4     :    -0.000000
  4 H s       :     0.298844  s :     0.298844
      pz      :    -0.002888  p :    -0.000843
      px      :     0.001022
      py      :     0.001022
      dz2     :    -0.000204  d :    -0.000236
      dxz     :    -0.000019
      dyz     :    -0.000019
      dx2y2   :     0.000003
      dxy     :     0.000003


                     *******************************
                     * LOEWDIN POPULATION ANALYSIS *
                     *******************************

-------------------------------------------
LOEWDIN ATOMIC CHARGES AND SPIN POPULATIONS
-------------------------------------------
   0 Au:    0.585973    0.505173
   1 Au:    0.489978    0.059977
   2 Au:    0.489977    0.059980
   3 Au:    0.489976    0.059980
   4 H :   -0.055905    0.314889

----------------------------------------------------
LOEWDIN REDUCED ORBITAL CHARGES AND SPIN POPULATIONS
----------------------------------------------------
CHARGE
  0 Aus       :     2.509133  s :     2.509133
      pz      :     2.343977  p :     6.419950
      px      :     2.037986
      py      :     2.037987
      dz2     :     1.636663  d :     9.461012
      dxz     :     1.923058
      dyz     :     1.923059
      dx2y2   :     1.989116
      dxy     :     1.989116
      f0      :     0.010549  f :     0.023543
      f+1     :     0.004007
      f-1     :     0.004007
      f+2     :     0.002124
      f-2     :     0.002124
      f+3     :     0.000370
      f-3     :     0.000362
      g0      :     0.000236  g :     0.000390
      g+1     :     0.000034
      g-1     :     0.000034
      g+2     :     0.000032
      g-2     :     0.000032
      g+3     :     0.000010
      g-3     :     0.000010
      g+4     :     0.000001
      g-4     :     0.000001
  1 Aus       :     2.435598  s :     2.435598
      pz      :     2.068566  p :     6.251184
      px      :     2.047082
      py      :     2.135535
      dz2     :     1.952377  d :     9.803298
      dxz     :     1.987689
      dyz     :     1.965653
      dx2y2   :     1.976213
      dxy     :     1.921366
      f0      :     0.002017  f :     0.019712
      f+1     :     0.001353
      f-1     :     0.004261
      f+2     :     0.001365
      f-2     :     0.002210
      f+3     :     0.005429
      f-3     :     0.003077
      g0      :     0.000017  g :     0.000229
      g+1     :     0.000009
      g-1     :     0.000032
      g+2     :     0.000024
      g-2     :     0.000029
      g+3     :     0.000023
      g-3     :     0.000007
      g+4     :     0.000035
      g-4     :     0.000053
  2 Aus       :     2.435599  s :     2.435599
      pz      :     2.068563  p :     6.251175
      px      :     2.113419
      py      :     2.069193
      dz2     :     1.952382  d :     9.803310
      dxz     :     1.971166
      dyz     :     1.982182
      dx2y2   :     1.935079
      dxy     :     1.962501
      f0      :     0.002017  f :     0.019710
      f+1     :     0.003534
      f-1     :     0.002080
      f+2     :     0.001998
      f-2     :     0.001576
      f+3     :     0.005429
      f-3     :     0.003077
      g0      :     0.000017  g :     0.000229
      g+1     :     0.000026
      g-1     :     0.000015
      g+2     :     0.000028
      g-2     :     0.000025
      g+3     :     0.000023
      g-3     :     0.000007
      g+4     :     0.000049
      g-4     :     0.000040
  3 Aus       :     2.435599  s :     2.435599
      pz      :     2.068563  p :     6.251175
      px      :     2.113419
      py      :     2.069193
      dz2     :     1.952382  d :     9.803310
      dxz     :     1.971166
      dyz     :     1.982182
      dx2y2   :     1.935079
      dxy     :     1.962501
      f0      :     0.002017  f :     0.019710
      f+1     :     0.003534
      f-1     :     0.002080
      f+2     :     0.001998
      f-2     :     0.001576
      f+3     :     0.005429
      f-3     :     0.003077
      g0      :     0.000017  g :     0.000229
      g+1     :     0.000026
      g-1     :     0.000015
      g+2     :     0.000028
      g-2     :     0.000025
      g+3     :     0.000023
      g-3     :     0.000007
      g+4     :     0.000049
      g-4     :     0.000040
  4 H s       :     0.813557  s :     0.813557
      pz      :     0.135273  p :     0.211302
      px      :     0.038016
      py      :     0.038014
      dz2     :     0.014250  d :     0.031045
      dxz     :     0.007990
      dyz     :     0.007990
      dx2y2   :     0.000408
      dxy     :     0.000408

SPIN
  0 Aus       :     0.178702  s :     0.178702
      pz      :     0.124015  p :     0.126188
      px      :     0.001087
      py      :     0.001087
      dz2     :     0.192167  d :     0.197073
      dxz     :     0.001589
      dyz     :     0.001590
      dx2y2   :     0.000864
      dxy     :     0.000864
      f0      :     0.003309  f :     0.003128
      f+1     :    -0.000070
      f-1     :    -0.000070
      f+2     :    -0.000038
      f-2     :    -0.000038
      f+3     :     0.000004
      f-3     :     0.000030
      g0      :     0.000093  g :     0.000082
      g+1     :    -0.000001
      g-1     :    -0.000001
      g+2     :    -0.000005
      g-2     :    -0.000005
      g+3     :    -0.000000
      g-3     :     0.000001
      g+4     :    -0.000000
      g-4     :    -0.000000
  1 Aus       :     0.016039  s :     0.016039
      pz      :     0.017283  p :     0.019823
      px      :     0.000088
      py      :     0.002451
      dz2     :     0.023579  d :     0.024113
      dxz     :    -0.000289
      dyz     :    -0.001120
      dx2y2   :     0.003456
      dxy     :    -0.001513
      f0      :     0.000119  f :     0.000003
      f+1     :    -0.000013
      f-1     :    -0.000110
      f+2     :     0.000018
      f-2     :     0.000002
      f+3     :    -0.000017
      f-3     :     0.000005
      g0      :     0.000000  g :    -0.000000
      g+1     :    -0.000000
      g-1     :    -0.000000
      g+2     :    -0.000000
      g-2     :    -0.000000
      g+3     :    -0.000000
      g-3     :     0.000000
      g+4     :    -0.000000
      g-4     :    -0.000000
  2 Aus       :     0.016037  s :     0.016037
      pz      :     0.017284  p :     0.019824
      px      :     0.001861
      py      :     0.000679
      dz2     :     0.023582  d :     0.024116
      dxz     :    -0.000911
      dyz     :    -0.000497
      dx2y2   :    -0.000271
      dxy     :     0.002213
      f0      :     0.000119  f :     0.000003
      f+1     :    -0.000086
      f-1     :    -0.000038
      f+2     :     0.000006
      f-2     :     0.000014
      f+3     :    -0.000017
      f-3     :     0.000005
      g0      :     0.000000  g :    -0.000000
      g+1     :    -0.000000
      g-1     :    -0.000000
      g+2     :    -0.000000
      g-2     :    -0.000000
      g+3     :    -0.000000
      g-3     :     0.000000
      g+4     :    -0.000000
      g-4     :    -0.000000
  3 Aus       :     0.016037  s :     0.016037
      pz      :     0.017284  p :     0.019824
      px      :     0.001861
      py      :     0.000679
      dz2     :     0.023582  d :     0.024116
      dxz     :    -0.000911
      dyz     :    -0.000497
      dx2y2   :    -0.000271
      dxy     :     0.002213
      f0      :     0.000119  f :     0.000003
      f+1     :    -0.000086
      f-1     :    -0.000038
      f+2     :     0.000006
      f-2     :     0.000014
      f+3     :    -0.000017
      f-3     :     0.000005
      g0      :     0.000000  g :    -0.000000
      g+1     :    -0.000000
      g-1     :    -0.000000
      g+2     :    -0.000000
      g-2     :    -0.000000
      g+3     :    -0.000000
      g-3     :     0.000000
      g+4     :    -0.000000
      g-4     :    -0.000000
  4 H s       :     0.295365  s :     0.295365
      pz      :     0.014392  p :     0.018979
      px      :     0.002293
      py      :     0.002293
      dz2     :     0.000354  d :     0.000544
      dxz     :     0.000081
      dyz     :     0.000081
      dx2y2   :     0.000014
      dxy     :     0.000014


                      *****************************
                      * MAYER POPULATION ANALYSIS *
                      *****************************

  NA   - Mulliken gross atomic population
  ZA   - Total nuclear charge
  QA   - Mulliken gross atomic charge
  VA   - Mayer's total valence
  BVA  - Mayer's bonded valence
  FA   - Mayer's free valence

  ATOM       NA         ZA         QA         VA         BVA        FA
  0 Au    18.7452    19.0000     0.2548     2.2436     1.8745     0.3692
  1 Au    18.4938    19.0000     0.5062     1.4873     1.4822     0.0051
  2 Au    18.4934    19.0000     0.5066     1.4869     1.4819     0.0051
  3 Au    18.4934    19.0000     0.5066     1.4870     1.4819     0.0051
  4 H      0.7742     1.0000     0.2258     0.9845     0.8982     0.0863

  Mayer bond orders larger than 0.100000
B(  0-Au,  1-Au) :   0.3622 B(  0-Au,  2-Au) :   0.3620 B(  0-Au,  3-Au) :   0.3620 
B(  0-Au,  4-H ) :   0.7883 B(  1-Au,  2-Au) :   0.5417 B(  1-Au,  3-Au) :   0.5417 
B(  2-Au,  3-Au) :   0.5416 

-------
TIMINGS
-------

Total SCF time: 0 days 0 hours 0 min 5 sec 

Total time                  ....       5.734 sec
Sum of individual times     ....       5.533 sec  ( 96.5%)

Fock matrix formation       ....       3.368 sec  ( 58.7%)
  Split-RI-J                ....       1.387 sec  ( 41.2% of F)
  XC integration            ....       1.807 sec  ( 53.7% of F)
    Basis function eval.    ....       0.108 sec  (  6.0% of XC)
    Density eval.           ....       0.386 sec  ( 21.3% of XC)
    XC-Functional eval.     ....       0.054 sec  (  3.0% of XC)
    XC-Potential eval.      ....       0.690 sec  ( 38.2% of XC)
Diagonalization             ....       0.259 sec  (  4.5%)
Density matrix formation    ....       0.027 sec  (  0.5%)
Population analysis         ....       0.019 sec  (  0.3%)
Initial guess               ....       1.310 sec  ( 22.8%)
Orbital Transformation      ....       0.000 sec  (  0.0%)
Orbital Orthonormalization  ....       0.000 sec  (  0.0%)
DIIS solution               ....       0.096 sec  (  1.7%)
Grid generation             ....       0.453 sec  (  7.9%)


-------------------------------------------------------------------------------
                          DFT DISPERSION CORRECTION                            
                                                                               
                              DFTD3 V3.1  Rev 1                                
                          USING Becke-Johnson damping                          
-------------------------------------------------------------------------------
The TPSS functional is recognized
Active option DFTDOPT                   ...         4   

molecular C6(AA) [au] = 5326.213407 


            DFT-D V3
 parameters
 s6 scaling factor         :     1.0000 
 a1 scaling factor         :     0.4535 
 s8 scaling factor         :     1.9435 
 a2 scaling factor         :     4.4752 
 ad hoc parameters k1-k3   :    16.0000     1.3333    -4.0000 

 Edisp/kcal,au: -8.286197738367  -0.013204895220 
 E6   /kcal   :  -2.523535676 
 E8   /kcal   :  -5.762662063 
 % E8         :  69.545311911 

-------------------------   ----------------
Dispersion correction           -0.013204895
-------------------------   ----------------


-------------------------   --------------------
FINAL SINGLE POINT ENERGY      -542.761214773593
-------------------------   --------------------


                            ***************************************
                            *     ORCA property calculations      *
                            ***************************************

                                    ---------------------
                                    Active property flags
                                    ---------------------
   (+) Dipole Moment


------------------------------------------------------------------------------
                       ORCA ELECTRIC PROPERTIES CALCULATION
------------------------------------------------------------------------------

Dipole Moment Calculation                       ... on
Quadrupole Moment Calculation                   ... off
Polarizability Calculation                      ... off
GBWName                                         ... Au04C2_H_A.gbw
Electron density file                           ... Au04C2_H_A.scfp
The origin for moment calculation is the CENTER OF MASS  = ( 0.000000,  0.000000 -0.011841)

-------------
DIPOLE MOMENT
-------------
                                X             Y             Z
Electronic contribution:     -0.00000      -0.00002      -5.61919
Nuclear contribution   :      0.00000      -0.00000       5.68843
                        -----------------------------------------
Total Dipole Moment    :     -0.00000      -0.00003       0.06924
                        -----------------------------------------
Magnitude (a.u.)       :      0.06924
Magnitude (Debye)      :      0.17599



--------------------
Rotational spectrum 
--------------------
 
Rotational constants in cm-1:     0.011875     0.010977     0.010977 
Rotational constants in MHz :   356.004762   329.094939   329.094872 

 Dipole components along the rotational axes: 
x,y,z [a.u.] :    -0.069239    -0.000000     0.000025 
x,y,z [Debye]:    -0.175993    -0.000000     0.000064 

 

Timings for individual modules:

Sum of individual times         ...        7.717 sec (=   0.129 min)
GTO integral calculation        ...        1.630 sec (=   0.027 min)  21.1 %
SCF iterations                  ...        6.086 sec (=   0.101 min)  78.9 %
                             ****ORCA TERMINATED NORMALLY****
TOTAL RUN TIME: 0 days 0 hours 0 minutes 8 seconds 222 msec
