
                                 *****************
                                 * O   R   C   A *
                                 *****************

           --- An Ab Initio, DFT and Semiempirical electronic structure package ---

                  #######################################################
                  #                        -***-                        #
                  #          Department of theory and spectroscopy      #
                  #               Directorship: Frank Neese             #
                  #        Max Planck Institute fuer Kohlenforschung    #
                  #                Kaiser Wilhelm Platz 1               #
                  #                 D-45470 Muelheim/Ruhr               #
                  #                      Germany                        #
                  #                                                     #
                  #                  All rights reserved                #
                  #                        -***-                        #
                  #######################################################


                         Program Version 4.2.0 -  RELEASE  -


 With contributions from (in alphabetic order):
   Daniel Aravena         : Magnetic Suceptibility
   Michael Atanasov       : Ab Initio Ligand Field Theory (pilot matlab implementation)
   Alexander A. Auer      : GIAO ZORA, VPT2
   Ute Becker             : Parallelization
   Giovanni Bistoni       : ED, misc. LED, open-shell LED, HFLED
   Martin Brehm           : Molecular dynamics
   Dmytro Bykov           : SCF Hessian
   Vijay G. Chilkuri      : MRCI spin determinant printing, contributions to CSF-ICE
   Dipayan Datta          : RHF DLPNO-CCSD density
   Achintya Kumar Dutta   : EOM-CC, STEOM-CC
   Dmitry Ganyushin       : Spin-Orbit,Spin-Spin,Magnetic field MRCI
   Miquel Garcia          : C-PCM Hessian, Gaussian charge scheme
   Yang Guo               : DLPNO-NEVPT2, CIM, IAO-localization
   Andreas Hansen         : Spin unrestricted coupled pair/coupled cluster methods
   Benjamin Helmich-Paris : CASSCF linear response (MC-RPA)
   Lee Huntington         : MR-EOM, pCC
   Robert Izsak           : Overlap fitted RIJCOSX, COSX-SCS-MP3, EOM
   Christian Kollmar      : KDIIS, OOCD, Brueckner-CCSD(T), CCSD density
   Simone Kossmann        : Meta GGA functionals, TD-DFT gradient, OOMP2, MP2 Hessian
   Martin Krupicka        : AUTO-CI
   Lucas Lang             : DCDCAS
   Dagmar Lenk            : GEPOL surface, SMD
   Dimitrios Liakos       : Extrapolation schemes; Compound Job, initial MDCI parallelization
   Dimitrios Manganas     : Further ROCIS development; embedding schemes
   Dimitrios Pantazis     : SARC Basis sets
   Taras Petrenko         : DFT Hessian,TD-DFT gradient, ASA, ECA, R-Raman, ABS, FL, XAS/XES, NRVS
   Peter Pinski           : DLPNO-MP2, DLPNO-MP2 Gradient
   Christoph Reimann      : Effective Core Potentials
   Marius Retegan         : Local ZFS, SOC
   Christoph Riplinger    : Optimizer, TS searches, QM/MM, DLPNO-CCSD(T), (RO)-DLPNO pert. Triples
   Tobias Risthaus        : Range-separated hybrids, TD-DFT gradient, RPA, STAB
   Michael Roemelt        : Original ROCIS implementation
   Masaaki Saitow         : Open-shell DLPNO-CCSD energy and density
   Barbara Sandhoefer     : DKH picture change effects
   Avijit Sen             : IP-ROCIS
   Kantharuban Sivalingam : CASSCF convergence, NEVPT2, FIC-MRCI
   Bernardo de Souza      : ESD, SOC TD-DFT
   Georgi Stoychev        : AutoAux, RI-MP2 NMR
   Willem Van den Heuvel  : Paramagnetic NMR
   Boris Wezisla          : Elementary symmetry handling
   Frank Wennmohs         : Technical directorship


 We gratefully acknowledge several colleagues who have allowed us to
 interface, adapt or use parts of their codes:
   Stefan Grimme, W. Hujo, H. Kruse,             : VdW corrections, initial TS optimization,
                  C. Bannwarth                     DFT functionals, gCP, sTDA/sTD-DF
   Ed Valeev, F. Pavosevic, A. Kumar             : LibInt (2-el integral package), F12 methods
   Garnet Chan, S. Sharma, J. Yang, R. Olivares  : DMRG
   Ulf Ekstrom                                   : XCFun DFT Library
   Mihaly Kallay                                 : mrcc  (arbitrary order and MRCC methods)
   Andreas Klamt, Michael Diedenhofen            : otool_cosmo (COSMO solvation model)
   Jiri Pittner, Ondrej Demel                    : Mk-CCSD
   Frank Weinhold                                : gennbo (NPA and NBO analysis)
   Christopher J. Cramer and Donald G. Truhlar   : smd solvation model
   Lars Goerigk                                  : TD-DFT with DH, B97 family of functionals
   V. Asgeirsson, H. Jonsson                     : NEB implementation
   FAccTs GmbH                                   : IRC, NEB, NEB-TS, Multilevel, MM, QM/MM, CI optimization
   S Lehtola, MJT Oliveira, MAL Marques          : LibXC Library


 Your calculation uses the libint2 library for the computation of 2-el integrals
 For citations please refer to: http://libint.valeyev.net

 Your ORCA version has been built with support for libXC version: 4.2.3
 For citations please refer to: https://tddft.org/programs/libxc/

 This ORCA versions uses:
   CBLAS   interface :  Fast vector & matrix operations
   LAPACKE interface :  Fast linear algebra routines
   SCALAPACK package :  Parallel linear algebra routines


Your calculation utilizes the atom-pairwise dispersion correction
with the Becke-Johnson damping scheme (D3BJ)
Cite in your paper:
S.Grimme, S.Ehrlich, L.Goerigk, J Comput Chem, (2011), 32, 1456–1465 
S.Grimme, J.Antony, S.Ehrlich and H.Krieg, J.Chem.Phys., 132, (2010), 154104 
   

----- Orbital basis set information -----
Your calculation utilizes the basis: def2-TZVPPD
   F. Weigend and R. Ahlrichs, Phys. Chem. Chem. Phys. 7, 3297 (2005).
   D. Rappoport and F. Furche, J. Chem. Phys. 133 134105 (2010).

----- AuxJ basis set information -----
Your calculation utilizes the auxiliary basis: def2/J
   F. Weigend, Phys. Chem. Chem. Phys. 8, 1057 (2006).

cite the ECPs for Au [Def2-ECP] as follows:
Ce-Yb(ecp-28): M. Dolg, H. Stoll, H.Preuss, J. Chem. Phys., 1989, 90, 1730-1734.
Y-Cd(ecp-28), Hf-Hg(ecp-46): D. Andrae,U. Haeussermann, M. Dolg, H. Stoll, H. Preuss, Theor. Chim. Acta, 1990, 77, 123-141.
In-Sb(ecp-28), Tl-Bi(ecp-46): B. Metz, H. Stoll, M. Dolg, J. Chem. Phys., 2000, 113, 2563-2569.
Te-Xe(ecp-28), Po-Rn(ecp-46): K. A. Peterson, D. Figgen, E. Goll, H. Stoll, M. Dolg, J. Chem. Phys., 2003, 119, 11113-11123.
Rb(ecp-28), Cs(ecp-46): T. Leininger, A. Nicklass, W. Kuechle, H. Stoll, M. Dolg, A. Bergner, Chem. Phys. Lett., 1996, 255, 274-280.
Sr(ecp-28), Ba(ecp-46): M. Kaupp, P. V. Schleyer, H. Stoll and H. Preuss, J. Chem. Phys., 1991, 94, 1360-1366.
La(ecp-46): M. Dolg, H. Stoll, A. Savin, H. Preuss, Theor. Chim. Acta, 1989, 75, 173-194.
Lu(ecp-28): X. Cao, M. Dolg, J. Chem. Phys., 2001, 115, 7348-7355.

ECP parameters for Au [Def2-ECP] have been obtained from:
TURBOMOLE (7.0.2)

================================================================================
                                        WARNINGS
                       Please study these warnings very carefully!
================================================================================


INFO   : the flag for use of LIBINT has been found!

================================================================================
                                       INPUT FILE
================================================================================
NAME = Au04N0.in
|  1> #
|  2> # Au04N0 TPSS-D3BJ/Def2-TZVPPD
|  3> #
|  4> ! tpss d3bj def2-tzvppd def2/j grid4 nofinalgrid
|  5> 
|  6> *xyz 0 1
|  7> Au      -0.788661   -0.016684    2.209526 
|  8> Au      -1.223332   -0.011467   -0.436740 
|  9> Au       0.788385    0.016579   -2.209564 
| 10> Au       1.223608    0.011572    0.436778 
| 11> *
| 12> 
| 13> %maxcore 5000
| 14> 
| 15> %pal
| 16> nprocs = 24
| 17> end
| 18> 
| 19> 
| 20>                          ****END OF INPUT****
================================================================================

                       ****************************
                       * Single Point Calculation *
                       ****************************

---------------------------------
CARTESIAN COORDINATES (ANGSTROEM)
---------------------------------
  Au    -0.788661   -0.016684    2.209526
  Au    -1.223332   -0.011467   -0.436740
  Au     0.788385    0.016579   -2.209564
  Au     1.223608    0.011572    0.436778

----------------------------
CARTESIAN COORDINATES (A.U.)
----------------------------
  NO LB      ZA    FRAG     MASS         X           Y           Z
   0 Au   19.0000*   0   196.966   -1.490353   -0.031528    4.175399
   1 Au   19.0000*   0   196.966   -2.311762   -0.021669   -0.825319
   2 Au   19.0000*   0   196.966    1.489832    0.031330   -4.175471
   3 Au   19.0000*   0   196.966    2.312284    0.021868    0.825391
* core charge reduced due to ECP

--------------------------------
INTERNAL COORDINATES (ANGSTROEM)
--------------------------------
 Au     0   0   0     0.000000000000     0.00000000     0.00000000
 Au     1   0   0     2.681732618679     0.00000000     0.00000000
 Au     2   1   0     2.681547463906   122.05942715     0.00000000
 Au     2   1   3     2.598284021320    61.02868748     0.00000000

---------------------------
INTERNAL COORDINATES (A.U.)
---------------------------
 Au     0   0   0     0.000000000000     0.00000000     0.00000000
 Au     1   0   0     5.067740213706     0.00000000     0.00000000
 Au     2   1   0     5.067390321894   122.05942715     0.00000000
 Au     2   1   3     4.910045218438    61.02868748     0.00000000

---------------------
BASIS SET INFORMATION
---------------------
There are 1 groups of distinct atoms

 Group   1 Type Au  : 8s8p6d2f1g contracted to 6s5p3d2f1g pattern {311111/41111/411/11/1}

Atom   0Au   basis set group =>   1
Atom   1Au   basis set group =>   1
Atom   2Au   basis set group =>   1
Atom   3Au   basis set group =>   1
---------------------------------
AUXILIARY/J BASIS SET INFORMATION
---------------------------------
There are 1 groups of distinct atoms

 Group   1 Type Au  : 11s5p5d3f3g contracted to 8s5p5d2f3g pattern {41111111/11111/11111/21/111}

Atom   0Au   basis set group =>   1
Atom   1Au   basis set group =>   1
Atom   2Au   basis set group =>   1
Atom   3Au   basis set group =>   1
-------------------------
ECP PARAMETER INFORMATION
-------------------------

 Group 1, Type Au ECP Def2-ECP (replacing 60 core electrons, lmax=3)

Atom   0Au   ECP group =>   1
Atom   1Au   ECP group =>   1
Atom   2Au   ECP group =>   1
Atom   3Au   ECP group =>   1



           ************************************************************
           *        Program running with 24 parallel MPI-processes    *
           *              working on a common directory               *
           ************************************************************
------------------------------------------------------------------------------
                           ORCA GTO INTEGRAL CALCULATION
                           -- RI-GTO INTEGRALS CHOSEN --
------------------------------------------------------------------------------

                         BASIS SET STATISTICS AND STARTUP INFO

Gaussian basis set:
 # of primitive gaussian shells          ...  100
 # of primitive gaussian functions       ...  340
 # of contracted shells                  ...   68
 # of contracted basis functions         ...  236
 Highest angular momentum                ...    4
 Maximum contraction depth               ...    4
Auxiliary gaussian basis set:
 # of primitive gaussian shells          ...  108
 # of primitive gaussian functions       ...  396
 # of contracted shells                  ...   92
 # of contracted aux-basis functions     ...  356
 Highest angular momentum                ...    4
 Maximum contraction depth               ...    4
Ratio of auxiliary to basis functions    ...  1.51
Integral package used                  ... LIBINT
 One Electron integrals                  
   ECP integrals                         ... done
 Ordering auxiliary basis shells         ... done
 Integral threshhold             Thresh  ...  1.000e-10
 Primitive cut-off               TCut    ...  1.000e-11
 Pre-screening matrix                    ... done
 Shell pair data                         ... 
 Ordering of the shell pairs             ... done (   0.000 sec) 2210 of 2346 pairs
 Determination of significant pairs      ... done (   0.000 sec)
 Creation of shell pair data             ... done (   0.000 sec)
 Storage of shell pair data              ... done (   0.011 sec)
 Shell pair data done in (   0.012 sec)
 Computing two index integrals           ... done
 Cholesky decomposition of the V-matrix  ... done


Timings:
 Total evaluation time                   ...   1.085 sec (  0.018 min)
 One electron matrix time                ...   0.834 sec (  0.014 min) = 76.8%
 Schwartz matrix evaluation time         ...   0.207 sec (  0.003 min) = 19.0%
 Two index repulsion integral time       ...   0.002 sec (  0.000 min) =  0.2%
 Cholesky decomposition of V             ...   0.002 sec (  0.000 min) =  0.2%
 Three index repulsion integral time     ...   0.000 sec (  0.000 min) =  0.0%



           ************************************************************
           *        Program running with 24 parallel MPI-processes    *
           *              working on a common directory               *
           ************************************************************
-------------------------------------------------------------------------------
                                 ORCA SCF
-------------------------------------------------------------------------------

------------
SCF SETTINGS
------------
Hamiltonian:
 Density Functional     Method          .... DFT(GTOs)
 Exchange Functional    Exchange        .... TPSS
 Correlation Functional Correlation     .... TPSS
 LDA part of GGA corr.  LDAOpt          .... PW91-LDA
 Gradients option       PostSCFGGA      .... off
   Density functional embedding theory  .... OFF
   NL short-range parameter             ....  5.000000
 RI-approximation to the Coulomb term is turned on
   Number of auxiliary basis functions  .... 356


General Settings:
 Integral files         IntName         .... Au04N0
 Hartree-Fock type      HFTyp           .... RHF
 Total Charge           Charge          ....    0
 Multiplicity           Mult            ....    1
 Number of Electrons    NEL             ....   76
 Basis Dimension        Dim             ....  236
 Nuclear Repulsion      ENuc            ....    399.1711911408 Eh

Convergence Acceleration:
 DIIS                   CNVDIIS         .... on
   Start iteration      DIISMaxIt       ....    12
   Startup error        DIISStart       ....  0.200000
   # of expansion vecs  DIISMaxEq       ....     5
   Bias factor          DIISBfac        ....   1.050
   Max. coefficient     DIISMaxC        ....  10.000
 Newton-Raphson         CNVNR           .... off
 SOSCF                  CNVSOSCF        .... off
 Level Shifting         CNVShift        .... on
   Level shift para.    LevelShift      ....    0.2500
   Turn off err/grad.   ShiftErr        ....    0.0010
 Zerner damping         CNVZerner       .... off
 Static damping         CNVDamp         .... on
   Fraction old density DampFac         ....    0.7000
   Max. Damping (<1)    DampMax         ....    0.9800
   Min. Damping (>=0)   DampMin         ....    0.0000
   Turn off err/grad.   DampErr         ....    0.1000
 Fernandez-Rico         CNVRico         .... off

SCF Procedure:
 Maximum # iterations   MaxIter         ....   125
 SCF integral mode      SCFMode         .... Direct
   Integral package                     .... LIBINT
 Reset frequency        DirectResetFreq ....    20
 Integral Threshold     Thresh          ....  1.000e-10 Eh
 Primitive CutOff       TCut            ....  1.000e-11 Eh

Convergence Tolerance:
 Convergence Check Mode ConvCheckMode   .... Total+1el-Energy
 Convergence forced     ConvForced      .... 0
 Energy Change          TolE            ....  1.000e-06 Eh
 1-El. energy change                    ....  1.000e-03 Eh
 DIIS Error             TolErr          ....  1.000e-06


Diagonalization of the overlap matrix:
Smallest eigenvalue                        ... 1.356e-03
Time for diagonalization                   ...    0.010 sec
Threshold for overlap eigenvalues          ... 1.000e-08
Number of eigenvalues below threshold      ... 0
Time for construction of square roots      ...    0.007 sec
Total time needed                          ...    0.018 sec

-------------------
DFT GRID GENERATION
-------------------

General Integration Accuracy     IntAcc      ...  4.670
Radial Grid Type                 RadialGrid  ... Gauss-Chebyshev
Angular Grid (max. acc.)         AngularGrid ... Lebedev-302
Angular grid pruning method      GridPruning ... 3 (G Style)
Weight generation scheme         WeightScheme... Becke
Basis function cutoff            BFCut       ...    1.0000e-10
Integration weight cutoff        WCut        ...    1.0000e-14
Grids for H and He will be reduced by one unit

# of grid points (after initial pruning)     ...  46608 (   0.0 sec)
# of grid points (after weights+screening)   ...  46120 (   0.0 sec)
nearest neighbour list constructed           ...    0.0 sec
Grid point re-assignment to atoms done       ...    0.0 sec
Grid point division into batches done        ...    0.4 sec
Reduced shell lists constructed in    0.5 sec

Total number of grid points                  ...    46120
Total number of batches                      ...      724
Average number of points per batch           ...       63
Average number of grid points per atom       ...    11530
Average number of shells per batch           ...     6.50 ( 9.56%)
Average number of basis functions per batch  ...    16.62 ( 7.04%)
Average number of large shells per batch     ...     4.41 (67.79%)
Average number of large basis fcns per batch ...    11.53 (69.36%)
Maximum spatial batch extension              ...  27.27, 32.41, 25.00 au
Average spatial batch extension              ...   0.67,  0.68,  0.56 au

Time for grid setup =    0.482 sec

------------------------------
INITIAL GUESS: MODEL POTENTIAL
------------------------------
Loading Hartree-Fock densities                     ... done
  calling /sw/apps/orca/orca_4_2_0_linux_x86-64_openmpi314/orca Au04N0_atom79.inp > Au04N0_atom79.out in order to generate an atomic fitting density for atom 0 (Au with ECP) on-the-fly... 
    atom 0 (Au), assumed electronic state with S=2: 1s2 2s2 2p6 3s2 3p6 4s2 3d10 4p6 5s2 4d10 5p6 6s1 4f14 5d10           ... done
Calculating cut-offs                               ... done
Setting up the integral package                    ... done
Initializing the effective Hamiltonian             ... done
Starting the Coulomb interaction                   ... done (   0.0 sec)
Reading the grid                                   ... done
Mapping shells                                     ... done
Starting the XC term evaluation                    ... done (   0.0 sec)
  promolecular density results
     # of electrons  =    316.009399453
     EX              =  -1463.244392310
     EC              =    -19.318832012
     EX+EC           =  -1482.563224322
Transforming the Hamiltonian                       ... done (   0.0 sec)
Diagonalizing the Hamiltonian                      ... done (   0.0 sec)
Back transforming the eigenvectors                 ... done (   0.0 sec)
Now organizing SCF variables                       ... done
                      ------------------
                      INITIAL GUESS DONE (   1.6 sec)
                      ------------------
--------------
SCF ITERATIONS
--------------
ITER       Energy         Delta-E        Max-DP      RMS-DP      [F,P]     Damp
               ***  Starting incremental Fock matrix formation  ***
  0   -542.4252347846   0.000000000000 0.24293380  0.00335542  0.5867064 0.7000
  1   -542.6525567854  -0.227322000779 0.15646039  0.00211730  0.3999740 0.7000
  2   -542.7258476517  -0.073290866278 0.09342042  0.00116435  0.2736480 0.7000
                               ***Turning on DIIS***
  3   -542.7802143027  -0.054366650985 0.06007922  0.00074191  0.1900812 0.7000
  4   -542.8212667172  -0.041052414575 0.04374887  0.00051818  0.1330353 0.7000
  5   -542.8497226175  -0.028455900204 0.10438786  0.00122792  0.0927563 0.0000
  6   -542.9160646960  -0.066342078550 0.00437269  0.00007460  0.0015331 0.0000
  7   -542.9160912907  -0.000026594661 0.00311111  0.00003957  0.0016832 0.0000
  8   -542.9161132406  -0.000021949960 0.00294298  0.00004787  0.0002477 0.0000
  9   -542.9161187158  -0.000005475158 0.00053987  0.00001022  0.0003924 0.0000
 10   -542.9161196227  -0.000000906876 0.00013371  0.00000290  0.0001246 0.0000
                 **** Energy Check signals convergence ****

               *****************************************************
               *                     SUCCESS                       *
               *           SCF CONVERGED AFTER  11 CYCLES          *
               *****************************************************


----------------
TOTAL SCF ENERGY
----------------

Total Energy       :         -542.91611977 Eh          -14773.49869 eV

Components:
Nuclear Repulsion  :          399.17119114 Eh           10862.00032 eV
Electronic Energy  :         -942.08731091 Eh          -25635.49901 eV
One Electron Energy:        -1751.49157893 Eh          -47660.50888 eV
Two Electron Energy:          809.40426802 Eh           22025.00986 eV

Virial components:
Potential Energy   :         -726.12906224 Eh          -19758.97631 eV
Kinetic Energy     :          183.21294246 Eh            4985.47762 eV
Virial Ratio       :            3.96330659


DFT components:
N(Alpha)           :       37.999980630215 electrons
N(Beta)            :       37.999980630215 electrons
N(Total)           :       75.999961260430 electrons
E(X)               :      -47.918891660588 Eh       
E(C)               :       -3.264062167146 Eh       
E(XC)              :      -51.182953827734 Eh       
DFET-embed. en.    :        0.000000000000 Eh       

---------------
SCF CONVERGENCE
---------------

  Last Energy change         ...   -1.4818e-07  Tolerance :   1.0000e-06
  Last MAX-Density change    ...    7.0977e-05  Tolerance :   1.0000e-05
  Last RMS-Density change    ...    1.5170e-06  Tolerance :   1.0000e-06
  Last DIIS Error            ...    3.3712e-05  Tolerance :   1.0000e-06

             **** THE GBW FILE WAS UPDATED (Au04N0.gbw) ****
             **** DENSITY FILE WAS UPDATED (Au04N0.scfp) ****
             **** ENERGY FILE WAS UPDATED (Au04N0.en.tmp) ****
             **** THE GBW FILE WAS UPDATED (Au04N0.gbw) ****
             **** DENSITY FILE WAS UPDATED (Au04N0.scfp) ****
----------------
ORBITAL ENERGIES
----------------

  NO   OCC          E(Eh)            E(eV) 
   0   2.0000      -4.034324      -109.7795 
   1   2.0000      -4.033957      -109.7696 
   2   2.0000      -4.017234      -109.3145 
   3   2.0000      -4.017225      -109.3143 
   4   2.0000      -2.250048       -61.2269 
   5   2.0000      -2.244940       -61.0879 
   6   2.0000      -2.243677       -61.0536 
   7   2.0000      -2.242790       -61.0294 
   8   2.0000      -2.237927       -60.8971 
   9   2.0000      -2.237257       -60.8789 
  10   2.0000      -2.229244       -60.6608 
  11   2.0000      -2.228612       -60.6436 
  12   2.0000      -2.225848       -60.5684 
  13   2.0000      -2.225587       -60.5613 
  14   2.0000      -2.218484       -60.3680 
  15   2.0000      -2.218470       -60.3677 
  16   2.0000      -0.366884        -9.9834 
  17   2.0000      -0.353121        -9.6089 
  18   2.0000      -0.327405        -8.9091 
  19   2.0000      -0.324970        -8.8429 
  20   2.0000      -0.314515        -8.5584 
  21   2.0000      -0.303066        -8.2469 
  22   2.0000      -0.292563        -7.9611 
  23   2.0000      -0.285675        -7.7736 
  24   2.0000      -0.271681        -7.3928 
  25   2.0000      -0.259273        -7.0552 
  26   2.0000      -0.258987        -7.0474 
  27   2.0000      -0.258230        -7.0268 
  28   2.0000      -0.257138        -6.9971 
  29   2.0000      -0.252995        -6.8843 
  30   2.0000      -0.252130        -6.8608 
  31   2.0000      -0.242459        -6.5976 
  32   2.0000      -0.242167        -6.5897 
  33   2.0000      -0.241303        -6.5662 
  34   2.0000      -0.239676        -6.5219 
  35   2.0000      -0.237674        -6.4674 
  36   2.0000      -0.220862        -6.0099 
  37   2.0000      -0.201218        -5.4754 
  38   0.0000      -0.160932        -4.3792 
  39   0.0000      -0.120522        -3.2796 
  40   0.0000      -0.064700        -1.7606 
  41   0.0000      -0.040488        -1.1017 
  42   0.0000      -0.036238        -0.9861 
  43   0.0000      -0.016546        -0.4503 
  44   0.0000       0.000338         0.0092 
  45   0.0000       0.025659         0.6982 
  46   0.0000       0.039666         1.0794 
  47   0.0000       0.055355         1.5063 
  48   0.0000       0.058469         1.5910 
  49   0.0000       0.065447         1.7809 
  50   0.0000       0.072059         1.9608 
  51   0.0000       0.118851         3.2341 
  52   0.0000       0.139133         3.7860 
  53   0.0000       0.144018         3.9189 
  54   0.0000       0.144381         3.9288 
  55   0.0000       0.157853         4.2954 
  56   0.0000       0.162177         4.4131 
  57   0.0000       0.186200         5.0668 
  58   0.0000       0.201393         5.4802 
  59   0.0000       0.205946         5.6041 
  60   0.0000       0.213963         5.8222 
  61   0.0000       0.216454         5.8900 
  62   0.0000       0.228501         6.2178 
  63   0.0000       0.231690         6.3046 
  64   0.0000       0.271840         7.3972 
  65   0.0000       0.278879         7.5887 
  66   0.0000       0.295283         8.0351 
  67   0.0000       0.312497         8.5035 
  68   0.0000       0.315492         8.5850 
  69   0.0000       0.322095         8.7647 
  70   0.0000       0.326678         8.8894 
  71   0.0000       0.336228         9.1492 
  72   0.0000       0.340971         9.2783 
  73   0.0000       0.370388        10.0788 
  74   0.0000       0.413582        11.2541 
  75   0.0000       0.434538        11.8244 
  76   0.0000       0.434828        11.8323 
  77   0.0000       0.447543        12.1783 
  78   0.0000       0.449818        12.2402 
  79   0.0000       0.453998        12.3539 
  80   0.0000       0.456170        12.4130 
  81   0.0000       0.460269        12.5246 
  82   0.0000       0.502031        13.6610 
  83   0.0000       0.510941        13.9034 
  84   0.0000       0.527849        14.3635 
  85   0.0000       0.532906        14.5011 
  86   0.0000       0.558502        15.1976 
  87   0.0000       0.618121        16.8199 
  88   0.0000       0.770772        20.9738 
  89   0.0000       0.809824        22.0364 
  90   0.0000       0.866367        23.5750 
  91   0.0000       0.876762        23.8579 
  92   0.0000       0.906006        24.6537 
  93   0.0000       0.910009        24.7626 
  94   0.0000       0.926345        25.2071 
  95   0.0000       0.931951        25.3597 
  96   0.0000       0.962369        26.1874 
  97   0.0000       0.978316        26.6213 
  98   0.0000       1.012695        27.5568 
  99   0.0000       1.031453        28.0673 
 100   0.0000       1.037264        28.2254 
 101   0.0000       1.037964        28.2444 
 102   0.0000       1.046719        28.4827 
 103   0.0000       1.050116        28.5751 
 104   0.0000       1.061536        28.8859 
 105   0.0000       1.071269        29.1507 
 106   0.0000       1.105880        30.0925 
 107   0.0000       1.108754        30.1707 
 108   0.0000       1.110697        30.2236 
 109   0.0000       1.113231        30.2926 
 110   0.0000       1.115206        30.3463 
 111   0.0000       1.215760        33.0825 
 112   0.0000       1.225311        33.3424 
 113   0.0000       1.229994        33.4698 
 114   0.0000       1.257954        34.2307 
 115   0.0000       1.264598        34.4115 
 116   0.0000       1.267938        34.5024 
 117   0.0000       1.269884        34.5553 
 118   0.0000       1.277827        34.7714 
 119   0.0000       1.304225        35.4898 
 120   0.0000       1.309775        35.6408 
 121   0.0000       1.316238        35.8167 
 122   0.0000       1.317722        35.8571 
 123   0.0000       1.330418        36.2025 
 124   0.0000       1.362997        37.0890 
 125   0.0000       1.367398        37.2088 
 126   0.0000       1.388012        37.7697 
 127   0.0000       1.402698        38.1693 
 128   0.0000       1.404951        38.2307 
 129   0.0000       1.407317        38.2951 
 130   0.0000       1.417644        38.5761 
 131   0.0000       1.436151        39.0796 
 132   0.0000       1.445793        39.3420 
 133   0.0000       1.467539        39.9338 
 134   0.0000       1.471621        40.0448 
 135   0.0000       1.472016        40.0556 
 136   0.0000       1.498032        40.7635 
 137   0.0000       1.509018        41.0625 
 138   0.0000       1.548272        42.1306 
 139   0.0000       1.554467        42.2992 
 140   0.0000       1.563557        42.5465 
 141   0.0000       1.596117        43.4326 
 142   0.0000       1.602145        43.5966 
 143   0.0000       1.762296        47.9545 
 144   0.0000       1.766642        48.0728 
 145   0.0000       1.802528        49.0493 
 146   0.0000       1.923227        52.3337 
 147   0.0000       1.998868        54.3920 
 148   0.0000       2.057089        55.9762 
 149   0.0000       2.540468        69.1296 
 150   0.0000       2.580846        70.2284 
 151   0.0000       2.648604        72.0722 
 152   0.0000       3.333695        90.7145 
 153   0.0000       3.388211        92.1979 
 154   0.0000       3.402172        92.5778 
 155   0.0000       3.403601        92.6167 
 156   0.0000       3.426414        93.2375 
 157   0.0000       3.459035        94.1251 
 158   0.0000       3.491325        95.0038 
 159   0.0000       3.517181        95.7074 
 160   0.0000       3.520282        95.7918 
 161   0.0000       3.522960        95.8646 
 162   0.0000       3.526435        95.9592 
 163   0.0000       3.551963        96.6538 
 164   0.0000       3.552469        96.6676 
 165   0.0000       3.553871        96.7057 
 166   0.0000       3.555685        96.7551 
 167   0.0000       3.627887        98.7198 
 168   0.0000       3.675452       100.0141 
 169   0.0000       3.682576       100.2080 
 170   0.0000       3.702878       100.7604 
 171   0.0000       3.712714       101.0281 
 172   0.0000       3.721129       101.2571 
 173   0.0000       3.729217       101.4772 
 174   0.0000       3.736965       101.6880 
 175   0.0000       3.764570       102.4392 
 176   0.0000       3.800759       103.4239 
 177   0.0000       3.847945       104.7079 
 178   0.0000       3.874441       105.4289 
 179   0.0000       3.896443       106.0276 
 180   0.0000       4.041552       109.9762 
 181   0.0000       4.044636       110.0601 
 182   0.0000       4.045858       110.0934 
 183   0.0000       4.047173       110.1292 
 184   0.0000       4.048173       110.1564 
 185   0.0000       4.050744       110.2264 
 186   0.0000       4.052372       110.2707 
 187   0.0000       4.053727       110.3075 
 188   0.0000       4.058663       110.4418 
 189   0.0000       4.059129       110.4545 
 190   0.0000       4.059975       110.4775 
 191   0.0000       4.060360       110.4880 
 192   0.0000       4.061302       110.5136 
 193   0.0000       4.061473       110.5183 
 194   0.0000       4.068866       110.7195 
 195   0.0000       4.069662       110.7411 
 196   0.0000       4.071747       110.7979 
 197   0.0000       4.071911       110.8023 
 198   0.0000       4.075469       110.8992 
 199   0.0000       4.075668       110.9046 
 200   0.0000       4.075790       110.9079 
 201   0.0000       4.076837       110.9364 
 202   0.0000       4.077097       110.9434 
 203   0.0000       4.091308       111.3302 
 204   0.0000       4.093408       111.3873 
 205   0.0000       4.094012       111.4037 
 206   0.0000       4.094701       111.4225 
 207   0.0000       4.099307       111.5478 
 208   0.0000       4.099568       111.5549 
 209   0.0000       4.108400       111.7952 
 210   0.0000       4.123424       112.2041 
 211   0.0000       4.193432       114.1091 
 212   0.0000       4.222560       114.9017 
 213   0.0000       4.233430       115.1975 
 214   0.0000       4.233589       115.2018 
 215   0.0000       4.366532       118.8194 
 216   0.0000      27.156221       738.9583 
 217   0.0000      27.332497       743.7551 
 218   0.0000      27.430105       746.4111 
 219   0.0000      27.493932       748.1479 
 220   0.0000      27.539593       749.3904 
 221   0.0000      27.553151       749.7594 
 222   0.0000      27.639431       752.1071 
 223   0.0000      28.126883       765.3714 
 224   0.0000      29.132356       792.7317 
 225   0.0000      29.530225       803.5583 
 226   0.0000      29.746189       809.4349 
 227   0.0000      29.825503       811.5932 
 228   0.0000      43.873705      1193.8642 
 229   0.0000      44.360159      1207.1013 
 230   0.0000      44.397510      1208.1177 
 231   0.0000      44.485393      1210.5091 
 232   0.0000     205.048624      5579.6567 
 233   0.0000     205.266180      5585.5767 
 234   0.0000     205.277397      5585.8820 
 235   0.0000     205.309600      5586.7582 

                    ********************************
                    * MULLIKEN POPULATION ANALYSIS *
                    ********************************

-----------------------
MULLIKEN ATOMIC CHARGES
-----------------------
   0 Au:   -0.138510
   1 Au:    0.138484
   2 Au:   -0.138491
   3 Au:    0.138516
Sum of atomic charges:   -0.0000000

--------------------------------
MULLIKEN REDUCED ORBITAL CHARGES
--------------------------------
  0 Aus       :     3.270947  s :     3.270947
      pz      :     2.053296  p :     6.093487
      px      :     2.023648
      py      :     2.016543
      dz2     :     1.924172  d :     9.765673
      dxz     :     1.899361
      dyz     :     1.982921
      dx2y2   :     1.968191
      dxy     :     1.991028
      f0      :     0.002120  f :     0.008276
      f+1     :     0.002176
      f-1     :     0.001269
      f+2     :     0.001054
      f-2     :     0.000876
      f+3     :     0.000389
      f-3     :     0.000391
      g0      :     0.000029  g :     0.000128
      g+1     :     0.000025
      g-1     :     0.000017
      g+2     :     0.000016
      g-2     :     0.000009
      g+3     :     0.000011
      g-3     :     0.000010
      g+4     :     0.000005
      g-4     :     0.000005
  1 Aus       :     2.827056  s :     2.827056
      pz      :     2.151331  p :     6.236332
      px      :     2.053246
      py      :     2.031755
      dz2     :     1.933340  d :     9.782768
      dxz     :     1.932970
      dyz     :     1.985578
      dx2y2   :     1.946019
      dxy     :     1.984860
      f0      :     0.002904  f :     0.015153
      f+1     :     0.003529
      f-1     :     0.001443
      f+2     :     0.002402
      f-2     :     0.001473
      f+3     :     0.001688
      f-3     :     0.001715
      g0      :     0.000031  g :     0.000207
      g+1     :     0.000038
      g-1     :     0.000015
      g+2     :     0.000027
      g-2     :     0.000009
      g+3     :     0.000026
      g-3     :     0.000019
      g+4     :     0.000021
      g-4     :     0.000020
  2 Aus       :     3.270935  s :     3.270935
      pz      :     2.053315  p :     6.093502
      px      :     2.023639
      py      :     2.016547
      dz2     :     1.924219  d :     9.765647
      dxz     :     1.899293
      dyz     :     1.982922
      dx2y2   :     1.968190
      dxy     :     1.991023
      f0      :     0.002120  f :     0.008279
      f+1     :     0.002177
      f-1     :     0.001268
      f+2     :     0.001055
      f-2     :     0.000877
      f+3     :     0.000389
      f-3     :     0.000392
      g0      :     0.000029  g :     0.000128
      g+1     :     0.000025
      g-1     :     0.000017
      g+2     :     0.000016
      g-2     :     0.000009
      g+3     :     0.000011
      g-3     :     0.000010
      g+4     :     0.000005
      g-4     :     0.000005
  3 Aus       :     2.826962  s :     2.826962
      pz      :     2.151328  p :     6.236310
      px      :     2.053237
      py      :     2.031745
      dz2     :     1.933377  d :     9.782861
      dxz     :     1.933003
      dyz     :     1.985588
      dx2y2   :     1.946028
      dxy     :     1.984864
      f0      :     0.002901  f :     0.015145
      f+1     :     0.003526
      f-1     :     0.001442
      f+2     :     0.002401
      f-2     :     0.001472
      f+3     :     0.001688
      f-3     :     0.001715
      g0      :     0.000031  g :     0.000207
      g+1     :     0.000038
      g-1     :     0.000015
      g+2     :     0.000027
      g-2     :     0.000009
      g+3     :     0.000026
      g-3     :     0.000019
      g+4     :     0.000021
      g-4     :     0.000020


                     *******************************
                     * LOEWDIN POPULATION ANALYSIS *
                     *******************************

----------------------
LOEWDIN ATOMIC CHARGES
----------------------
   0 Au:    0.078635
   1 Au:   -0.078721
   2 Au:    0.078653
   3 Au:   -0.078567

-------------------------------
LOEWDIN REDUCED ORBITAL CHARGES
-------------------------------
  0 Aus       :     2.870350  s :     2.870350
      pz      :     2.140681  p :     6.214857
      px      :     2.052403
      py      :     2.021772
      dz2     :     1.953250  d :     9.821629
      dxz     :     1.922262
      dyz     :     1.978750
      dx2y2   :     1.977519
      dxy     :     1.989848
      f0      :     0.004260  f :     0.014347
      f+1     :     0.003714
      f-1     :     0.001846
      f+2     :     0.001970
      f-2     :     0.001338
      f+3     :     0.000628
      f-3     :     0.000591
      g0      :     0.000049  g :     0.000182
      g+1     :     0.000032
      g-1     :     0.000022
      g+2     :     0.000026
      g-2     :     0.000012
      g+3     :     0.000017
      g-3     :     0.000013
      g+4     :     0.000006
      g-4     :     0.000006
  1 Aus       :     2.558220  s :     2.558220
      pz      :     2.412114  p :     6.612908
      px      :     2.164405
      py      :     2.036389
      dz2     :     1.964538  d :     9.880738
      dxz     :     1.971536
      dyz     :     1.981498
      dx2y2   :     1.982030
      dxy     :     1.981135
      f0      :     0.005853  f :     0.026531
      f+1     :     0.005639
      f-1     :     0.002058
      f+2     :     0.005205
      f-2     :     0.002169
      f+3     :     0.003114
      f-3     :     0.002494
      g0      :     0.000060  g :     0.000325
      g+1     :     0.000060
      g-1     :     0.000021
      g+2     :     0.000042
      g-2     :     0.000012
      g+3     :     0.000046
      g-3     :     0.000026
      g+4     :     0.000031
      g-4     :     0.000026
  2 Aus       :     2.870314  s :     2.870314
      pz      :     2.140710  p :     6.214885
      px      :     2.052397
      py      :     2.021777
      dz2     :     1.953281  d :     9.821613
      dxz     :     1.922220
      dyz     :     1.978751
      dx2y2   :     1.977518
      dxy     :     1.989843
      f0      :     0.004259  f :     0.014353
      f+1     :     0.003717
      f-1     :     0.001845
      f+2     :     0.001971
      f-2     :     0.001340
      f+3     :     0.000629
      f-3     :     0.000592
      g0      :     0.000049  g :     0.000182
      g+1     :     0.000032
      g-1     :     0.000022
      g+2     :     0.000026
      g-2     :     0.000012
      g+3     :     0.000017
      g-3     :     0.000013
      g+4     :     0.000006
      g-4     :     0.000006
  3 Aus       :     2.558198  s :     2.558198
      pz      :     2.411966  p :     6.612713
      px      :     2.164370
      py      :     2.036377
      dz2     :     1.964564  d :     9.880814
      dxz     :     1.971563
      dyz     :     1.981511
      dx2y2   :     1.982037
      dxy     :     1.981139
      f0      :     0.005849  f :     0.026516
      f+1     :     0.005635
      f-1     :     0.002056
      f+2     :     0.005203
      f-2     :     0.002167
      f+3     :     0.003114
      f-3     :     0.002493
      g0      :     0.000060  g :     0.000325
      g+1     :     0.000060
      g-1     :     0.000021
      g+2     :     0.000042
      g-2     :     0.000012
      g+3     :     0.000046
      g-3     :     0.000026
      g+4     :     0.000031
      g-4     :     0.000026


                      *****************************
                      * MAYER POPULATION ANALYSIS *
                      *****************************

  NA   - Mulliken gross atomic population
  ZA   - Total nuclear charge
  QA   - Mulliken gross atomic charge
  VA   - Mayer's total valence
  BVA  - Mayer's bonded valence
  FA   - Mayer's free valence

  ATOM       NA         ZA         QA         VA         BVA        FA
  0 Au    19.1385    19.0000    -0.1385     1.4600     1.4600    -0.0000
  1 Au    18.8615    19.0000     0.1385     1.6291     1.6291    -0.0000
  2 Au    19.1385    19.0000    -0.1385     1.4601     1.4601    -0.0000
  3 Au    18.8615    19.0000     0.1385     1.6288     1.6288    -0.0000

  Mayer bond orders larger than 0.100000
B(  0-Au,  1-Au) :   0.5937 B(  0-Au,  2-Au) :   0.2725 B(  0-Au,  3-Au) :   0.5938 
B(  1-Au,  2-Au) :   0.5940 B(  1-Au,  3-Au) :   0.4414 B(  2-Au,  3-Au) :   0.5937 


-------
TIMINGS
-------

Total SCF time: 0 days 0 hours 0 min 3 sec 

Total time                  ....       3.851 sec
Sum of individual times     ....       3.712 sec  ( 96.4%)

Fock matrix formation       ....       1.969 sec  ( 51.1%)
  Split-RI-J                ....       1.168 sec  ( 59.3% of F)
  XC integration            ....       0.744 sec  ( 37.8% of F)
    Basis function eval.    ....       0.085 sec  ( 11.4% of XC)
    Density eval.           ....       0.158 sec  ( 21.2% of XC)
    XC-Functional eval.     ....       0.043 sec  (  5.8% of XC)
    XC-Potential eval.      ....       0.270 sec  ( 36.3% of XC)
Diagonalization             ....       0.095 sec  (  2.5%)
Density matrix formation    ....       0.014 sec  (  0.4%)
Population analysis         ....       0.010 sec  (  0.3%)
Initial guess               ....       1.092 sec  ( 28.4%)
Orbital Transformation      ....       0.000 sec  (  0.0%)
Orbital Orthonormalization  ....       0.000 sec  (  0.0%)
DIIS solution               ....       0.049 sec  (  1.3%)
Grid generation             ....       0.482 sec  ( 12.5%)


-------------------------------------------------------------------------------
                          DFT DISPERSION CORRECTION                            
                                                                               
                              DFTD3 V3.1  Rev 1                                
                          USING Becke-Johnson damping                          
-------------------------------------------------------------------------------
The TPSS functional is recognized
Active option DFTDOPT                   ...         4   

molecular C6(AA) [au] = 5074.506404 


            DFT-D V3
 parameters
 s6 scaling factor         :     1.0000 
 a1 scaling factor         :     0.4535 
 s8 scaling factor         :     1.9435 
 a2 scaling factor         :     4.4752 
 ad hoc parameters k1-k3   :    16.0000     1.3333    -4.0000 

 Edisp/kcal,au: -7.052638506579  -0.011239093664 
 E6   /kcal   :  -2.065578684 
 E8   /kcal   :  -4.987059823 
 % E8         :  70.711972808 

-------------------------   ----------------
Dispersion correction           -0.011239094
-------------------------   ----------------


-------------------------   --------------------
FINAL SINGLE POINT ENERGY      -542.927358864507
-------------------------   --------------------


                            ***************************************
                            *     ORCA property calculations      *
                            ***************************************

                                    ---------------------
                                    Active property flags
                                    ---------------------
   (+) Dipole Moment


------------------------------------------------------------------------------
                       ORCA ELECTRIC PROPERTIES CALCULATION
------------------------------------------------------------------------------

Dipole Moment Calculation                       ... on
Quadrupole Moment Calculation                   ... off
Polarizability Calculation                      ... off
GBWName                                         ... Au04N0.gbw
Electron density file                           ... Au04N0.scfp
The origin for moment calculation is the CENTER OF MASS  = ( 0.000000,  0.000000  0.000000)

-------------
DIPOLE MOMENT
-------------
                                X             Y             Z
Electronic contribution:      0.00033       0.00001      -0.00000
Nuclear contribution   :     -0.00000      -0.00000       0.00000
                        -----------------------------------------
Total Dipole Moment    :      0.00033       0.00001      -0.00000
                        -----------------------------------------
Magnitude (a.u.)       :      0.00033
Magnitude (Debye)      :      0.00083



--------------------
Rotational spectrum 
--------------------
 
Rotational constants in cm-1:     0.025355     0.007775     0.005950 
Rotational constants in MHz :   760.119680   233.080651   178.382130 

 Dipole components along the rotational axes: 
x,y,z [a.u.] :    -0.000111     0.000308     0.000003 
x,y,z [Debye]:    -0.000283     0.000782     0.000007 

 

Timings for individual modules:

Sum of individual times         ...        5.622 sec (=   0.094 min)
GTO integral calculation        ...        1.452 sec (=   0.024 min)  25.8 %
SCF iterations                  ...        4.170 sec (=   0.070 min)  74.2 %
                             ****ORCA TERMINATED NORMALLY****
TOTAL RUN TIME: 0 days 0 hours 0 minutes 6 seconds 128 msec
