
                                 *****************
                                 * O   R   C   A *
                                 *****************

           --- An Ab Initio, DFT and Semiempirical electronic structure package ---

                  #######################################################
                  #                        -***-                        #
                  #          Department of theory and spectroscopy      #
                  #               Directorship: Frank Neese             #
                  #        Max Planck Institute fuer Kohlenforschung    #
                  #                Kaiser Wilhelm Platz 1               #
                  #                 D-45470 Muelheim/Ruhr               #
                  #                      Germany                        #
                  #                                                     #
                  #                  All rights reserved                #
                  #                        -***-                        #
                  #######################################################


                         Program Version 4.2.0 -  RELEASE  -


 With contributions from (in alphabetic order):
   Daniel Aravena         : Magnetic Suceptibility
   Michael Atanasov       : Ab Initio Ligand Field Theory (pilot matlab implementation)
   Alexander A. Auer      : GIAO ZORA, VPT2
   Ute Becker             : Parallelization
   Giovanni Bistoni       : ED, misc. LED, open-shell LED, HFLED
   Martin Brehm           : Molecular dynamics
   Dmytro Bykov           : SCF Hessian
   Vijay G. Chilkuri      : MRCI spin determinant printing, contributions to CSF-ICE
   Dipayan Datta          : RHF DLPNO-CCSD density
   Achintya Kumar Dutta   : EOM-CC, STEOM-CC
   Dmitry Ganyushin       : Spin-Orbit,Spin-Spin,Magnetic field MRCI
   Miquel Garcia          : C-PCM Hessian, Gaussian charge scheme
   Yang Guo               : DLPNO-NEVPT2, CIM, IAO-localization
   Andreas Hansen         : Spin unrestricted coupled pair/coupled cluster methods
   Benjamin Helmich-Paris : CASSCF linear response (MC-RPA)
   Lee Huntington         : MR-EOM, pCC
   Robert Izsak           : Overlap fitted RIJCOSX, COSX-SCS-MP3, EOM
   Christian Kollmar      : KDIIS, OOCD, Brueckner-CCSD(T), CCSD density
   Simone Kossmann        : Meta GGA functionals, TD-DFT gradient, OOMP2, MP2 Hessian
   Martin Krupicka        : AUTO-CI
   Lucas Lang             : DCDCAS
   Dagmar Lenk            : GEPOL surface, SMD
   Dimitrios Liakos       : Extrapolation schemes; Compound Job, initial MDCI parallelization
   Dimitrios Manganas     : Further ROCIS development; embedding schemes
   Dimitrios Pantazis     : SARC Basis sets
   Taras Petrenko         : DFT Hessian,TD-DFT gradient, ASA, ECA, R-Raman, ABS, FL, XAS/XES, NRVS
   Peter Pinski           : DLPNO-MP2, DLPNO-MP2 Gradient
   Christoph Reimann      : Effective Core Potentials
   Marius Retegan         : Local ZFS, SOC
   Christoph Riplinger    : Optimizer, TS searches, QM/MM, DLPNO-CCSD(T), (RO)-DLPNO pert. Triples
   Tobias Risthaus        : Range-separated hybrids, TD-DFT gradient, RPA, STAB
   Michael Roemelt        : Original ROCIS implementation
   Masaaki Saitow         : Open-shell DLPNO-CCSD energy and density
   Barbara Sandhoefer     : DKH picture change effects
   Avijit Sen             : IP-ROCIS
   Kantharuban Sivalingam : CASSCF convergence, NEVPT2, FIC-MRCI
   Bernardo de Souza      : ESD, SOC TD-DFT
   Georgi Stoychev        : AutoAux, RI-MP2 NMR
   Willem Van den Heuvel  : Paramagnetic NMR
   Boris Wezisla          : Elementary symmetry handling
   Frank Wennmohs         : Technical directorship


 We gratefully acknowledge several colleagues who have allowed us to
 interface, adapt or use parts of their codes:
   Stefan Grimme, W. Hujo, H. Kruse,             : VdW corrections, initial TS optimization,
                  C. Bannwarth                     DFT functionals, gCP, sTDA/sTD-DF
   Ed Valeev, F. Pavosevic, A. Kumar             : LibInt (2-el integral package), F12 methods
   Garnet Chan, S. Sharma, J. Yang, R. Olivares  : DMRG
   Ulf Ekstrom                                   : XCFun DFT Library
   Mihaly Kallay                                 : mrcc  (arbitrary order and MRCC methods)
   Andreas Klamt, Michael Diedenhofen            : otool_cosmo (COSMO solvation model)
   Jiri Pittner, Ondrej Demel                    : Mk-CCSD
   Frank Weinhold                                : gennbo (NPA and NBO analysis)
   Christopher J. Cramer and Donald G. Truhlar   : smd solvation model
   Lars Goerigk                                  : TD-DFT with DH, B97 family of functionals
   V. Asgeirsson, H. Jonsson                     : NEB implementation
   FAccTs GmbH                                   : IRC, NEB, NEB-TS, Multilevel, MM, QM/MM, CI optimization
   S Lehtola, MJT Oliveira, MAL Marques          : LibXC Library


 Your calculation uses the libint2 library for the computation of 2-el integrals
 For citations please refer to: http://libint.valeyev.net

 Your ORCA version has been built with support for libXC version: 4.2.3
 For citations please refer to: https://tddft.org/programs/libxc/

 This ORCA versions uses:
   CBLAS   interface :  Fast vector & matrix operations
   LAPACKE interface :  Fast linear algebra routines
   SCALAPACK package :  Parallel linear algebra routines


Your calculation utilizes the atom-pairwise dispersion correction
with the Becke-Johnson damping scheme (D3BJ)
Cite in your paper:
S.Grimme, S.Ehrlich, L.Goerigk, J Comput Chem, (2011), 32, 1456–1465 
S.Grimme, J.Antony, S.Ehrlich and H.Krieg, J.Chem.Phys., 132, (2010), 154104 
   

----- Orbital basis set information -----
Your calculation utilizes the basis: def2-TZVPPD
   F. Weigend and R. Ahlrichs, Phys. Chem. Chem. Phys. 7, 3297 (2005).
   D. Rappoport and F. Furche, J. Chem. Phys. 133 134105 (2010).

----- AuxJ basis set information -----
Your calculation utilizes the auxiliary basis: def2/J
   F. Weigend, Phys. Chem. Chem. Phys. 8, 1057 (2006).

================================================================================
                                        WARNINGS
                       Please study these warnings very carefully!
================================================================================


INFO   : the flag for use of LIBINT has been found!

================================================================================
                                       INPUT FILE
================================================================================
NAME = Cu03C1_LIN.in
|  1> #
|  2> # Cu03C1_LIN TPSS-D3BJ/Def2-TZVPPD
|  3> #
|  4> ! tpss d3bj def2-tzvppd def2/j grid4 nofinalgrid
|  5> 
|  6> *xyz 1 1
|  7> Cu       0.000000    0.000000    0.000000 
|  8> Cu       0.000000    0.000000    2.337165 
|  9> Cu       0.000000    0.000000   -2.337165 
| 10> *
| 11> 
| 12> %maxcore 5000
| 13> 
| 14> %pal
| 15> nprocs = 24
| 16> end
| 17> 
| 18> 
| 19>                          ****END OF INPUT****
================================================================================

                       ****************************
                       * Single Point Calculation *
                       ****************************

---------------------------------
CARTESIAN COORDINATES (ANGSTROEM)
---------------------------------
  Cu     0.000000    0.000000    0.000000
  Cu     0.000000    0.000000    2.337165
  Cu     0.000000    0.000000   -2.337165

----------------------------
CARTESIAN COORDINATES (A.U.)
----------------------------
  NO LB      ZA    FRAG     MASS         X           Y           Z
   0 Cu   29.0000    0    63.550    0.000000    0.000000    0.000000
   1 Cu   29.0000    0    63.550    0.000000    0.000000    4.416602
   2 Cu   29.0000    0    63.550    0.000000    0.000000   -4.416602

--------------------------------
INTERNAL COORDINATES (ANGSTROEM)
--------------------------------
 Cu     0   0   0     0.000000000000     0.00000000     0.00000000
 Cu     1   0   0     2.337165000000     0.00000000     0.00000000
 Cu     1   2   0     2.337165000000   180.00000000     0.00000000

---------------------------
INTERNAL COORDINATES (A.U.)
---------------------------
 Cu     0   0   0     0.000000000000     0.00000000     0.00000000
 Cu     1   0   0     4.416601779786     0.00000000     0.00000000
 Cu     1   2   0     4.416601779786   180.00000000     0.00000000

---------------------
BASIS SET INFORMATION
---------------------
There are 1 groups of distinct atoms

 Group   1 Type Cu  : 17s13p7d2f1g contracted to 6s6p4d2f1g pattern {842111/631111/4111/11/1}

Atom   0Cu   basis set group =>   1
Atom   1Cu   basis set group =>   1
Atom   2Cu   basis set group =>   1
---------------------------------
AUXILIARY/J BASIS SET INFORMATION
---------------------------------
There are 1 groups of distinct atoms

 Group   1 Type Cu  : 19s5p5d3f3g contracted to 8s5p4d3f3g pattern {121111111/11111/2111/111/111}

Atom   0Cu   basis set group =>   1
Atom   1Cu   basis set group =>   1
Atom   2Cu   basis set group =>   1


           ************************************************************
           *        Program running with 24 parallel MPI-processes    *
           *              working on a common directory               *
           ************************************************************
------------------------------------------------------------------------------
                           ORCA GTO INTEGRAL CALCULATION
                           -- RI-GTO INTEGRALS CHOSEN --
------------------------------------------------------------------------------

                         BASIS SET STATISTICS AND STARTUP INFO

Gaussian basis set:
 # of primitive gaussian shells          ...  120
 # of primitive gaussian functions       ...  342
 # of contracted shells                  ...   57
 # of contracted basis functions         ...  201
 Highest angular momentum                ...    4
 Maximum contraction depth               ...    8
Auxiliary gaussian basis set:
 # of primitive gaussian shells          ...  105
 # of primitive gaussian functions       ...  321
 # of contracted shells                  ...   69
 # of contracted aux-basis functions     ...  273
 Highest angular momentum                ...    4
 Maximum contraction depth               ...   12
Ratio of auxiliary to basis functions    ...  1.36
Integral package used                  ... LIBINT
 One Electron integrals                  ... done
 Ordering auxiliary basis shells         ... done
 Integral threshhold             Thresh  ...  1.000e-10
 Primitive cut-off               TCut    ...  1.000e-11
 Pre-screening matrix                    ... done
 Shell pair data                         ... 
 Ordering of the shell pairs             ... done (   0.000 sec) 1432 of 1653 pairs
 Determination of significant pairs      ... done (   0.000 sec)
 Creation of shell pair data             ... done (   0.000 sec)
 Storage of shell pair data              ... done (   0.000 sec)
 Shell pair data done in (   0.001 sec)
 Computing two index integrals           ... done
 Cholesky decomposition of the V-matrix  ... done


Timings:
 Total evaluation time                   ...   0.275 sec (  0.005 min)
 One electron matrix time                ...   0.032 sec (  0.001 min) = 11.6%
 Schwartz matrix evaluation time         ...   0.210 sec (  0.003 min) = 76.4%
 Two index repulsion integral time       ...   0.001 sec (  0.000 min) =  0.5%
 Cholesky decomposition of V             ...   0.003 sec (  0.000 min) =  1.3%
 Three index repulsion integral time     ...   0.000 sec (  0.000 min) =  0.0%



           ************************************************************
           *        Program running with 24 parallel MPI-processes    *
           *              working on a common directory               *
           ************************************************************
-------------------------------------------------------------------------------
                                 ORCA SCF
-------------------------------------------------------------------------------

------------
SCF SETTINGS
------------
Hamiltonian:
 Density Functional     Method          .... DFT(GTOs)
 Exchange Functional    Exchange        .... TPSS
 Correlation Functional Correlation     .... TPSS
 LDA part of GGA corr.  LDAOpt          .... PW91-LDA
 Gradients option       PostSCFGGA      .... off
   Density functional embedding theory  .... OFF
   NL short-range parameter             ....  5.000000
 RI-approximation to the Coulomb term is turned on
   Number of auxiliary basis functions  .... 273


General Settings:
 Integral files         IntName         .... Cu03C1_LIN
 Hartree-Fock type      HFTyp           .... RHF
 Total Charge           Charge          ....    1
 Multiplicity           Mult            ....    1
 Number of Electrons    NEL             ....   86
 Basis Dimension        Dim             ....  201
 Nuclear Repulsion      ENuc            ....    476.0447295979 Eh

Convergence Acceleration:
 DIIS                   CNVDIIS         .... on
   Start iteration      DIISMaxIt       ....    12
   Startup error        DIISStart       ....  0.200000
   # of expansion vecs  DIISMaxEq       ....     5
   Bias factor          DIISBfac        ....   1.050
   Max. coefficient     DIISMaxC        ....  10.000
 Newton-Raphson         CNVNR           .... off
 SOSCF                  CNVSOSCF        .... off
 Level Shifting         CNVShift        .... on
   Level shift para.    LevelShift      ....    0.2500
   Turn off err/grad.   ShiftErr        ....    0.0010
 Zerner damping         CNVZerner       .... off
 Static damping         CNVDamp         .... on
   Fraction old density DampFac         ....    0.7000
   Max. Damping (<1)    DampMax         ....    0.9800
   Min. Damping (>=0)   DampMin         ....    0.0000
   Turn off err/grad.   DampErr         ....    0.1000
 Fernandez-Rico         CNVRico         .... off

SCF Procedure:
 Maximum # iterations   MaxIter         ....   125
 SCF integral mode      SCFMode         .... Direct
   Integral package                     .... LIBINT
 Reset frequency        DirectResetFreq ....    20
 Integral Threshold     Thresh          ....  1.000e-10 Eh
 Primitive CutOff       TCut            ....  1.000e-11 Eh

Convergence Tolerance:
 Convergence Check Mode ConvCheckMode   .... Total+1el-Energy
 Convergence forced     ConvForced      .... 0
 Energy Change          TolE            ....  1.000e-06 Eh
 1-El. energy change                    ....  1.000e-03 Eh
 DIIS Error             TolErr          ....  1.000e-06


Diagonalization of the overlap matrix:
Smallest eigenvalue                        ... 3.551e-04
Time for diagonalization                   ...    0.009 sec
Threshold for overlap eigenvalues          ... 1.000e-08
Number of eigenvalues below threshold      ... 0
Time for construction of square roots      ...    0.006 sec
Total time needed                          ...    0.015 sec

-------------------
DFT GRID GENERATION
-------------------

General Integration Accuracy     IntAcc      ...  4.670
Radial Grid Type                 RadialGrid  ... Gauss-Chebyshev
Angular Grid (max. acc.)         AngularGrid ... Lebedev-302
Angular grid pruning method      GridPruning ... 3 (G Style)
Weight generation scheme         WeightScheme... Becke
Basis function cutoff            BFCut       ...    1.0000e-10
Integration weight cutoff        WCut        ...    1.0000e-14
Grids for H and He will be reduced by one unit

# of grid points (after initial pruning)     ...  28668 (   0.0 sec)
# of grid points (after weights+screening)   ...  28508 (   0.0 sec)
nearest neighbour list constructed           ...    0.0 sec
Grid point re-assignment to atoms done       ...    0.0 sec
Grid point division into batches done        ...    0.2 sec
Reduced shell lists constructed in    0.2 sec

Total number of grid points                  ...    28508
Total number of batches                      ...      447
Average number of points per batch           ...       63
Average number of grid points per atom       ...     9503
Average number of shells per batch           ...    18.10 (31.75%)
Average number of basis functions per batch  ...    52.30 (26.02%)
Average number of large shells per batch     ...    15.95 (88.12%)
Average number of large basis fcns per batch ...    46.25 (88.43%)
Maximum spatial batch extension              ...  26.18, 26.18,  4.39 au
Average spatial batch extension              ...   0.42,  0.42,  0.18 au

Time for grid setup =    0.263 sec

------------------------------
INITIAL GUESS: MODEL POTENTIAL
------------------------------
Loading Hartree-Fock densities                     ... done
Calculating cut-offs                               ... done
Setting up the integral package                    ... done
Initializing the effective Hamiltonian             ... done
Starting the Coulomb interaction                   ... done (   0.0 sec)
Reading the grid                                   ... done
Mapping shells                                     ... done
Starting the XC term evaluation                    ... done (   0.0 sec)
  promolecular density results
     # of electrons  =     87.000080809
     EX              =   -196.428260652
     EC              =     -4.044741476
     EX+EC           =   -200.473002128
Transforming the Hamiltonian                       ... done (   0.0 sec)
Diagonalizing the Hamiltonian                      ... done (   0.0 sec)
Back transforming the eigenvectors                 ... done (   0.0 sec)
Now organizing SCF variables                       ... done
                      ------------------
                      INITIAL GUESS DONE (   0.4 sec)
                      ------------------
--------------
SCF ITERATIONS
--------------
ITER       Energy         Delta-E        Max-DP      RMS-DP      [F,P]     Damp
               ***  Starting incremental Fock matrix formation  ***
  0  -4921.3185917169   0.000000000000 0.11747048  0.00160174  0.1992539 0.7000
  1  -4921.3543110340  -0.035719317159 0.07571492  0.00075951  0.0564568 0.7000
                               ***Turning on DIIS***
  2  -4921.3676014334  -0.013290399341 0.14152925  0.00140868  0.0461055 0.0000
  3  -4921.3969069867  -0.029305553328 0.01699174  0.00037319  0.0971632 0.0000
  4  -4921.4052232761  -0.008316289372 0.01540546  0.00016521  0.0109004 0.0000
  5  -4921.4055368211  -0.000313545003 0.00444601  0.00006661  0.0113276 0.0000
  6  -4921.4056691894  -0.000132368318 0.00207547  0.00003358  0.0024623 0.0000
  7  -4921.4056789853  -0.000009795902 0.00224123  0.00003963  0.0004570 0.0000
  8  -4921.4056804895  -0.000001504181 0.00026186  0.00000478  0.0005317 0.0000
  9  -4921.4056807711  -0.000000281618 0.00023503  0.00000273  0.0000744 0.0000
                 **** Energy Check signals convergence ****

               *****************************************************
               *                     SUCCESS                       *
               *           SCF CONVERGED AFTER  10 CYCLES          *
               *****************************************************


----------------
TOTAL SCF ENERGY
----------------

Total Energy       :        -4921.40568072 Eh         -133918.25684 eV

Components:
Nuclear Repulsion  :          476.04472960 Eh           12953.83565 eV
Electronic Energy  :        -5397.45041032 Eh         -146872.09250 eV
One Electron Energy:        -7794.83493342 Eh         -212108.24191 eV
Two Electron Energy:         2397.38452311 Eh           65236.14942 eV

Virial components:
Potential Energy   :        -9834.54321983 Eh         -267611.52612 eV
Kinetic Energy     :         4913.13753911 Eh          133693.26927 eV
Virial Ratio       :            2.00168286


DFT components:
N(Alpha)           :       42.999995275767 electrons
N(Beta)            :       42.999995275767 electrons
N(Total)           :       85.999990551534 electrons
E(X)               :     -197.355318962745 Eh       
E(C)               :       -4.054457053798 Eh       
E(XC)              :     -201.409776016543 Eh       
DFET-embed. en.    :        0.000000000000 Eh       

---------------
SCF CONVERGENCE
---------------

  Last Energy change         ...    5.3866e-08  Tolerance :   1.0000e-06
  Last MAX-Density change    ...    9.7530e-05  Tolerance :   1.0000e-05
  Last RMS-Density change    ...    8.0737e-07  Tolerance :   1.0000e-06
  Last DIIS Error            ...    3.6663e-05  Tolerance :   1.0000e-06

             **** THE GBW FILE WAS UPDATED (Cu03C1_LIN.gbw) ****
             **** DENSITY FILE WAS UPDATED (Cu03C1_LIN.scfp) ****
             **** ENERGY FILE WAS UPDATED (Cu03C1_LIN.en.tmp) ****
             **** THE GBW FILE WAS UPDATED (Cu03C1_LIN.gbw) ****
             **** DENSITY FILE WAS UPDATED (Cu03C1_LIN.scfp) ****
----------------
ORBITAL ENERGIES
----------------

  NO   OCC          E(Eh)            E(eV) 
   0   2.0000    -322.300077     -8770.2310 
   1   2.0000    -322.300074     -8770.2309 
   2   2.0000    -322.265938     -8769.3020 
   3   2.0000     -38.584324     -1049.9328 
   4   2.0000     -38.584303     -1049.9323 
   5   2.0000     -38.557811     -1049.2114 
   6   2.0000     -33.804175      -919.8584 
   7   2.0000     -33.804172      -919.8583 
   8   2.0000     -33.803398      -919.8372 
   9   2.0000     -33.803398      -919.8372 
  10   2.0000     -33.803396      -919.8372 
  11   2.0000     -33.803396      -919.8372 
  12   2.0000     -33.776800      -919.1135 
  13   2.0000     -33.776571      -919.1072 
  14   2.0000     -33.776571      -919.1072 
  15   2.0000      -4.346356      -118.2703 
  16   2.0000      -4.346336      -118.2698 
  17   2.0000      -4.315409      -117.4283 
  18   2.0000      -2.862114       -77.8821 
  19   2.0000      -2.861963       -77.8780 
  20   2.0000      -2.857086       -77.7453 
  21   2.0000      -2.857086       -77.7453 
  22   2.0000      -2.857086       -77.7453 
  23   2.0000      -2.857086       -77.7453 
  24   2.0000      -2.831841       -77.0583 
  25   2.0000      -2.824419       -76.8563 
  26   2.0000      -2.824419       -76.8563 
  27   2.0000      -0.451416       -12.2837 
  28   2.0000      -0.420009       -11.4290 
  29   2.0000      -0.420009       -11.4290 
  30   2.0000      -0.415653       -11.3105 
  31   2.0000      -0.411709       -11.2032 
  32   2.0000      -0.411709       -11.2032 
  33   2.0000      -0.405827       -11.0431 
  34   2.0000      -0.405817       -11.0428 
  35   2.0000      -0.405268       -11.0279 
  36   2.0000      -0.405258       -11.0276 
  37   2.0000      -0.389957       -10.6113 
  38   2.0000      -0.371459       -10.1079 
  39   2.0000      -0.371459       -10.1079 
  40   2.0000      -0.370441       -10.0802 
  41   2.0000      -0.370427       -10.0798 
  42   2.0000      -0.364164        -9.9094 
  43   0.0000      -0.352929        -9.6037 
  44   0.0000      -0.252808        -6.8793 
  45   0.0000      -0.211544        -5.7564 
  46   0.0000      -0.211544        -5.7564 
  47   0.0000      -0.184262        -5.0140 
  48   0.0000      -0.161030        -4.3819 
  49   0.0000      -0.161030        -4.3819 
  50   0.0000      -0.083565        -2.2739 
  51   0.0000      -0.083565        -2.2739 
  52   0.0000      -0.074978        -2.0402 
  53   0.0000      -0.057644        -1.5686 
  54   0.0000      -0.057150        -1.5551 
  55   0.0000      -0.029951        -0.8150 
  56   0.0000      -0.029951        -0.8150 
  57   0.0000      -0.014014        -0.3813 
  58   0.0000      -0.007020        -0.1910 
  59   0.0000      -0.007020        -0.1910 
  60   0.0000      -0.004487        -0.1221 
  61   0.0000      -0.004487        -0.1221 
  62   0.0000       0.026685         0.7261 
  63   0.0000       0.033443         0.9100 
  64   0.0000       0.033443         0.9100 
  65   0.0000       0.042001         1.1429 
  66   0.0000       0.042001         1.1429 
  67   0.0000       0.059865         1.6290 
  68   0.0000       0.065663         1.7868 
  69   0.0000       0.065663         1.7868 
  70   0.0000       0.099499         2.7075 
  71   0.0000       0.118927         3.2362 
  72   0.0000       0.118927         3.2362 
  73   0.0000       0.135695         3.6925 
  74   0.0000       0.171558         4.6683 
  75   0.0000       0.171558         4.6683 
  76   0.0000       0.192642         5.2421 
  77   0.0000       0.274453         7.4683 
  78   0.0000       0.274453         7.4683 
  79   0.0000       0.305889         8.3237 
  80   0.0000       0.350696         9.5429 
  81   0.0000       0.409574        11.1451 
  82   0.0000       0.460742        12.5374 
  83   0.0000       0.460742        12.5374 
  84   0.0000       0.479321        13.0430 
  85   0.0000       0.479321        13.0430 
  86   0.0000       0.540095        14.6967 
  87   0.0000       0.540095        14.6967 
  88   0.0000       0.559568        15.2266 
  89   0.0000       0.644575        17.5398 
  90   0.0000       0.644575        17.5398 
  91   0.0000       0.677221        18.4281 
  92   0.0000       0.677221        18.4281 
  93   0.0000       0.681880        18.5549 
  94   0.0000       0.681882        18.5550 
  95   0.0000       0.687161        18.6986 
  96   0.0000       0.720477        19.6052 
  97   0.0000       0.734618        19.9900 
  98   0.0000       0.734618        19.9900 
  99   0.0000       0.750429        20.4202 
 100   0.0000       0.750434        20.4203 
 101   0.0000       0.927311        25.2334 
 102   0.0000       0.927311        25.2334 
 103   0.0000       0.949943        25.8493 
 104   0.0000       1.230689        33.4888 
 105   0.0000       2.666424        72.5571 
 106   0.0000       2.698389        73.4269 
 107   0.0000       2.698389        73.4269 
 108   0.0000       2.786451        75.8232 
 109   0.0000       2.786451        75.8232 
 110   0.0000       2.806454        76.3675 
 111   0.0000       2.827935        76.9520 
 112   0.0000       2.827935        76.9520 
 113   0.0000       2.830765        77.0290 
 114   0.0000       2.935522        79.8796 
 115   0.0000       3.063964        83.3747 
 116   0.0000       3.099757        84.3487 
 117   0.0000       3.143262        85.5325 
 118   0.0000       3.143262        85.5325 
 119   0.0000       3.149460        85.7012 
 120   0.0000       3.149460        85.7012 
 121   0.0000       3.152660        85.7882 
 122   0.0000       3.152661        85.7883 
 123   0.0000       3.153316        85.8061 
 124   0.0000       3.153317        85.8061 
 125   0.0000       3.154585        85.8406 
 126   0.0000       3.154585        85.8406 
 127   0.0000       3.154585        85.8406 
 128   0.0000       3.154585        85.8406 
 129   0.0000       3.191699        86.8505 
 130   0.0000       3.191699        86.8505 
 131   0.0000       3.197650        87.0125 
 132   0.0000       3.197664        87.0129 
 133   0.0000       3.204677        87.2037 
 134   0.0000       3.204677        87.2037 
 135   0.0000       3.216345        87.5212 
 136   0.0000       3.276909        89.1692 
 137   0.0000       3.364097        91.5417 
 138   0.0000       3.364153        91.5433 
 139   0.0000       3.382156        92.0331 
 140   0.0000       3.382206        92.0345 
 141   0.0000       3.417057        92.9828 
 142   0.0000       3.417057        92.9828 
 143   0.0000       3.446115        93.7736 
 144   0.0000       3.446181        93.7754 
 145   0.0000       3.460357        94.1611 
 146   0.0000       3.488009        94.9135 
 147   0.0000       3.488009        94.9135 
 148   0.0000       3.595018        97.8254 
 149   0.0000       3.595018        97.8254 
 150   0.0000       3.702378       100.7468 
 151   0.0000       3.799928       103.4013 
 152   0.0000       4.144515       112.7780 
 153   0.0000      12.693201       345.3996 
 154   0.0000      12.693201       345.3996 
 155   0.0000      12.693824       345.4165 
 156   0.0000      12.693824       345.4165 
 157   0.0000      12.694071       345.4232 
 158   0.0000      12.694113       345.4244 
 159   0.0000      12.694224       345.4274 
 160   0.0000      12.694497       345.4348 
 161   0.0000      12.695113       345.4516 
 162   0.0000      12.695156       345.4528 
 163   0.0000      12.696537       345.4903 
 164   0.0000      12.696537       345.4903 
 165   0.0000      12.696545       345.4906 
 166   0.0000      12.696545       345.4906 
 167   0.0000      12.698012       345.5305 
 168   0.0000      12.698012       345.5305 
 169   0.0000      12.698199       345.5356 
 170   0.0000      12.698199       345.5356 
 171   0.0000      12.727901       346.3438 
 172   0.0000      12.727901       346.3438 
 173   0.0000      12.728591       346.3626 
 174   0.0000      12.730243       346.4075 
 175   0.0000      12.730444       346.4130 
 176   0.0000      12.732797       346.4770 
 177   0.0000      12.732797       346.4770 
 178   0.0000      12.736917       346.5891 
 179   0.0000      12.737171       346.5960 
 180   0.0000      12.785823       347.9199 
 181   0.0000      12.785823       347.9199 
 182   0.0000      12.786457       347.9372 
 183   0.0000      12.786629       347.9419 
 184   0.0000      12.787329       347.9609 
 185   0.0000      12.787500       347.9656 
 186   0.0000      12.789548       348.0213 
 187   0.0000      12.789548       348.0213 
 188   0.0000      12.789548       348.0213 
 189   0.0000      12.789548       348.0213 
 190   0.0000      12.798010       348.2516 
 191   0.0000      12.798010       348.2516 
 192   0.0000      12.798267       348.2586 
 193   0.0000      12.816609       348.7577 
 194   0.0000      12.816823       348.7635 
 195   0.0000      12.819843       348.8457 
 196   0.0000      12.819843       348.8457 
 197   0.0000      12.828100       349.0704 
 198   0.0000      12.828100       349.0704 
 199   0.0000      12.865775       350.0955 
 200   0.0000      12.910349       351.3084 

                    ********************************
                    * MULLIKEN POPULATION ANALYSIS *
                    ********************************

-----------------------
MULLIKEN ATOMIC CHARGES
-----------------------
   0 Cu:   -0.277384
   1 Cu:    0.638679
   2 Cu:    0.638705
Sum of atomic charges:    1.0000000

--------------------------------
MULLIKEN REDUCED ORBITAL CHARGES
--------------------------------
  0 Cus       :     7.331739  s :     7.331739
      pz      :     3.981115  p :    12.018949
      px      :     4.018917
      py      :     4.018917
      dz2     :     1.976886  d :     9.926456
      dxz     :     1.974768
      dyz     :     1.974768
      dx2y2   :     2.000017
      dxy     :     2.000017
      f0      :     0.000092  f :     0.000238
      f+1     :     0.000066
      f-1     :     0.000066
      f+2     :     0.000007
      f-2     :     0.000007
      f+3     :     0.000000
      f-3     :     0.000000
      g0      :     0.000000  g :     0.000002
      g+1     :     0.000000
      g-1     :     0.000000
      g+2     :     0.000000
      g-2     :     0.000000
      g+3     :     0.000000
      g-3     :     0.000000
      g+4     :     0.000000
      g-4     :     0.000000
  1 Cus       :     6.411749  s :     6.411749
      pz      :     3.998340  p :    12.024808
      px      :     4.013234
      py      :     4.013234
      dz2     :     1.944964  d :     9.924623
      dxz     :     1.989850
      dyz     :     1.989850
      dx2y2   :     1.999980
      dxy     :     1.999980
      f0      :     0.000042  f :     0.000140
      f+1     :     0.000040
      f-1     :     0.000040
      f+2     :     0.000009
      f-2     :     0.000009
      f+3     :     0.000000
      f-3     :     0.000000
      g0      :     0.000000  g :     0.000001
      g+1     :     0.000000
      g-1     :     0.000000
      g+2     :     0.000000
      g-2     :     0.000000
      g+3     :     0.000000
      g-3     :     0.000000
      g+4     :     0.000000
      g-4     :     0.000000
  2 Cus       :     6.411730  s :     6.411730
      pz      :     3.998335  p :    12.024802
      px      :     4.013234
      py      :     4.013234
      dz2     :     1.944964  d :     9.924623
      dxz     :     1.989850
      dyz     :     1.989850
      dx2y2   :     1.999980
      dxy     :     1.999980
      f0      :     0.000042  f :     0.000140
      f+1     :     0.000040
      f-1     :     0.000040
      f+2     :     0.000009
      f-2     :     0.000009
      f+3     :     0.000000
      f-3     :     0.000000
      g0      :     0.000000  g :     0.000001
      g+1     :     0.000000
      g-1     :     0.000000
      g+2     :     0.000000
      g-2     :     0.000000
      g+3     :     0.000000
      g-3     :     0.000000
      g+4     :     0.000000
      g-4     :     0.000000


                     *******************************
                     * LOEWDIN POPULATION ANALYSIS *
                     *******************************

----------------------
LOEWDIN ATOMIC CHARGES
----------------------
   0 Cu:    0.120377
   1 Cu:    0.439811
   2 Cu:    0.439812

-------------------------------
LOEWDIN REDUCED ORBITAL CHARGES
-------------------------------
  0 Cus       :     6.731393  s :     6.731393
      pz      :     4.073799  p :    12.109704
      px      :     4.017952
      py      :     4.017952
      dz2     :     2.094407  d :    10.037922
      dxz     :     1.972285
      dyz     :     1.972285
      dx2y2   :     1.999472
      dxy     :     1.999472
      f0      :     0.000316  f :     0.000602
      f+1     :     0.000134
      f-1     :     0.000134
      f+2     :     0.000009
      f-2     :     0.000009
      f+3     :     0.000000
      f-3     :     0.000000
      g0      :     0.000001  g :     0.000002
      g+1     :     0.000001
      g-1     :     0.000001
      g+2     :     0.000000
      g-2     :     0.000000
      g+3     :     0.000000
      g-3     :     0.000000
      g+4     :     0.000000
      g-4     :     0.000000
  1 Cus       :     6.421773  s :     6.421773
      pz      :     4.131892  p :    12.160436
      px      :     4.014272
      py      :     4.014272
      dz2     :     1.996247  d :     9.977668
      dxz     :     1.990461
      dyz     :     1.990461
      dx2y2   :     2.000249
      dxy     :     2.000249
      f0      :     0.000129  f :     0.000310
      f+1     :     0.000080
      f-1     :     0.000080
      f+2     :     0.000010
      f-2     :     0.000010
      f+3     :     0.000000
      f-3     :     0.000000
      g0      :     0.000000  g :     0.000001
      g+1     :     0.000000
      g-1     :     0.000000
      g+2     :     0.000000
      g-2     :     0.000000
      g+3     :     0.000000
      g-3     :     0.000000
      g+4     :     0.000000
      g-4     :     0.000000
  2 Cus       :     6.421772  s :     6.421772
      pz      :     4.131892  p :    12.160436
      px      :     4.014272
      py      :     4.014272
      dz2     :     1.996247  d :     9.977668
      dxz     :     1.990461
      dyz     :     1.990461
      dx2y2   :     2.000249
      dxy     :     2.000249
      f0      :     0.000129  f :     0.000310
      f+1     :     0.000080
      f-1     :     0.000080
      f+2     :     0.000010
      f-2     :     0.000010
      f+3     :     0.000000
      f-3     :     0.000000
      g0      :     0.000000  g :     0.000001
      g+1     :     0.000000
      g-1     :     0.000000
      g+2     :     0.000000
      g-2     :     0.000000
      g+3     :     0.000000
      g-3     :     0.000000
      g+4     :     0.000000
      g-4     :     0.000000


                      *****************************
                      * MAYER POPULATION ANALYSIS *
                      *****************************

  NA   - Mulliken gross atomic population
  ZA   - Total nuclear charge
  QA   - Mulliken gross atomic charge
  VA   - Mayer's total valence
  BVA  - Mayer's bonded valence
  FA   - Mayer's free valence

  ATOM       NA         ZA         QA         VA         BVA        FA
  0 Cu    29.2774    29.0000    -0.2774     1.0129     1.0129    -0.0000
  1 Cu    28.3613    29.0000     0.6387     0.8016     0.8016     0.0000
  2 Cu    28.3613    29.0000     0.6387     0.8016     0.8016    -0.0000

  Mayer bond orders larger than 0.100000
B(  0-Cu,  1-Cu) :   0.5065 B(  0-Cu,  2-Cu) :   0.5064 B(  1-Cu,  2-Cu) :   0.2952 


-------
TIMINGS
-------

Total SCF time: 0 days 0 hours 0 min 2 sec 

Total time                  ....       2.208 sec
Sum of individual times     ....       2.075 sec  ( 94.0%)

Fock matrix formation       ....       1.600 sec  ( 72.5%)
  Split-RI-J                ....       1.055 sec  ( 65.9% of F)
  XC integration            ....       0.467 sec  ( 29.1% of F)
    Basis function eval.    ....       0.035 sec  (  7.5% of XC)
    Density eval.           ....       0.050 sec  ( 10.7% of XC)
    XC-Functional eval.     ....       0.024 sec  (  5.2% of XC)
    XC-Potential eval.      ....       0.110 sec  ( 23.5% of XC)
Diagonalization             ....       0.065 sec  (  3.0%)
Density matrix formation    ....       0.009 sec  (  0.4%)
Population analysis         ....       0.006 sec  (  0.3%)
Initial guess               ....       0.099 sec  (  4.5%)
Orbital Transformation      ....       0.000 sec  (  0.0%)
Orbital Orthonormalization  ....       0.000 sec  (  0.0%)
DIIS solution               ....       0.032 sec  (  1.5%)
Grid generation             ....       0.263 sec  ( 11.9%)


-------------------------------------------------------------------------------
                          DFT DISPERSION CORRECTION                            
                                                                               
                              DFTD3 V3.1  Rev 1                                
                          USING Becke-Johnson damping                          
-------------------------------------------------------------------------------
The TPSS functional is recognized
Active option DFTDOPT                   ...         4   

molecular C6(AA) [au] = 1599.926199 


            DFT-D V3
 parameters
 s6 scaling factor         :     1.0000 
 a1 scaling factor         :     0.4535 
 s8 scaling factor         :     1.9435 
 a2 scaling factor         :     4.4752 
 ad hoc parameters k1-k3   :    16.0000     1.3333    -4.0000 

 Edisp/kcal,au: -2.143700538796  -0.003416203896 
 E6   /kcal   :  -0.675435120 
 E8   /kcal   :  -1.468265418 
 % E8         :  68.492095410 

-------------------------   ----------------
Dispersion correction           -0.003416204
-------------------------   ----------------


-------------------------   --------------------
FINAL SINGLE POINT ENERGY     -4921.409096921107
-------------------------   --------------------


                            ***************************************
                            *     ORCA property calculations      *
                            ***************************************

                                    ---------------------
                                    Active property flags
                                    ---------------------
   (+) Dipole Moment


------------------------------------------------------------------------------
                       ORCA ELECTRIC PROPERTIES CALCULATION
------------------------------------------------------------------------------

Dipole Moment Calculation                       ... on
Quadrupole Moment Calculation                   ... off
Polarizability Calculation                      ... off
GBWName                                         ... Cu03C1_LIN.gbw
Electron density file                           ... Cu03C1_LIN.scfp
The origin for moment calculation is the CENTER OF MASS  = ( 0.000000,  0.000000  0.000000)

-------------
DIPOLE MOMENT
-------------
                                X             Y             Z
Electronic contribution:     -0.00000       0.00000      -0.00000
Nuclear contribution   :      0.00000       0.00000       0.00000
                        -----------------------------------------
Total Dipole Moment    :     -0.00000       0.00000      -0.00000
                        -----------------------------------------
Magnitude (a.u.)       :      0.00000
Magnitude (Debye)      :      0.00001



--------------------
Rotational spectrum 
--------------------
 
Rotational constants in cm-1:     0.000000     0.024281     0.024281 
Rotational constants in MHz :     0.000000   727.936180   727.936180 

 Dipole components along the rotational axes: 
x,y,z [a.u.] :    -0.000003     0.000000    -0.000000 
x,y,z [Debye]:    -0.000008     0.000000    -0.000000 

 

Timings for individual modules:

Sum of individual times         ...        3.184 sec (=   0.053 min)
GTO integral calculation        ...        0.626 sec (=   0.010 min)  19.7 %
SCF iterations                  ...        2.558 sec (=   0.043 min)  80.3 %
                             ****ORCA TERMINATED NORMALLY****
TOTAL RUN TIME: 0 days 0 hours 0 minutes 3 seconds 667 msec
