
                                 *****************
                                 * O   R   C   A *
                                 *****************

           --- An Ab Initio, DFT and Semiempirical electronic structure package ---

                  #######################################################
                  #                        -***-                        #
                  #          Department of theory and spectroscopy      #
                  #               Directorship: Frank Neese             #
                  #        Max Planck Institute fuer Kohlenforschung    #
                  #                Kaiser Wilhelm Platz 1               #
                  #                 D-45470 Muelheim/Ruhr               #
                  #                      Germany                        #
                  #                                                     #
                  #                  All rights reserved                #
                  #                        -***-                        #
                  #######################################################


                         Program Version 4.2.0 -  RELEASE  -


 With contributions from (in alphabetic order):
   Daniel Aravena         : Magnetic Suceptibility
   Michael Atanasov       : Ab Initio Ligand Field Theory (pilot matlab implementation)
   Alexander A. Auer      : GIAO ZORA, VPT2
   Ute Becker             : Parallelization
   Giovanni Bistoni       : ED, misc. LED, open-shell LED, HFLED
   Martin Brehm           : Molecular dynamics
   Dmytro Bykov           : SCF Hessian
   Vijay G. Chilkuri      : MRCI spin determinant printing, contributions to CSF-ICE
   Dipayan Datta          : RHF DLPNO-CCSD density
   Achintya Kumar Dutta   : EOM-CC, STEOM-CC
   Dmitry Ganyushin       : Spin-Orbit,Spin-Spin,Magnetic field MRCI
   Miquel Garcia          : C-PCM Hessian, Gaussian charge scheme
   Yang Guo               : DLPNO-NEVPT2, CIM, IAO-localization
   Andreas Hansen         : Spin unrestricted coupled pair/coupled cluster methods
   Benjamin Helmich-Paris : CASSCF linear response (MC-RPA)
   Lee Huntington         : MR-EOM, pCC
   Robert Izsak           : Overlap fitted RIJCOSX, COSX-SCS-MP3, EOM
   Christian Kollmar      : KDIIS, OOCD, Brueckner-CCSD(T), CCSD density
   Simone Kossmann        : Meta GGA functionals, TD-DFT gradient, OOMP2, MP2 Hessian
   Martin Krupicka        : AUTO-CI
   Lucas Lang             : DCDCAS
   Dagmar Lenk            : GEPOL surface, SMD
   Dimitrios Liakos       : Extrapolation schemes; Compound Job, initial MDCI parallelization
   Dimitrios Manganas     : Further ROCIS development; embedding schemes
   Dimitrios Pantazis     : SARC Basis sets
   Taras Petrenko         : DFT Hessian,TD-DFT gradient, ASA, ECA, R-Raman, ABS, FL, XAS/XES, NRVS
   Peter Pinski           : DLPNO-MP2, DLPNO-MP2 Gradient
   Christoph Reimann      : Effective Core Potentials
   Marius Retegan         : Local ZFS, SOC
   Christoph Riplinger    : Optimizer, TS searches, QM/MM, DLPNO-CCSD(T), (RO)-DLPNO pert. Triples
   Tobias Risthaus        : Range-separated hybrids, TD-DFT gradient, RPA, STAB
   Michael Roemelt        : Original ROCIS implementation
   Masaaki Saitow         : Open-shell DLPNO-CCSD energy and density
   Barbara Sandhoefer     : DKH picture change effects
   Avijit Sen             : IP-ROCIS
   Kantharuban Sivalingam : CASSCF convergence, NEVPT2, FIC-MRCI
   Bernardo de Souza      : ESD, SOC TD-DFT
   Georgi Stoychev        : AutoAux, RI-MP2 NMR
   Willem Van den Heuvel  : Paramagnetic NMR
   Boris Wezisla          : Elementary symmetry handling
   Frank Wennmohs         : Technical directorship


 We gratefully acknowledge several colleagues who have allowed us to
 interface, adapt or use parts of their codes:
   Stefan Grimme, W. Hujo, H. Kruse,             : VdW corrections, initial TS optimization,
                  C. Bannwarth                     DFT functionals, gCP, sTDA/sTD-DF
   Ed Valeev, F. Pavosevic, A. Kumar             : LibInt (2-el integral package), F12 methods
   Garnet Chan, S. Sharma, J. Yang, R. Olivares  : DMRG
   Ulf Ekstrom                                   : XCFun DFT Library
   Mihaly Kallay                                 : mrcc  (arbitrary order and MRCC methods)
   Andreas Klamt, Michael Diedenhofen            : otool_cosmo (COSMO solvation model)
   Jiri Pittner, Ondrej Demel                    : Mk-CCSD
   Frank Weinhold                                : gennbo (NPA and NBO analysis)
   Christopher J. Cramer and Donald G. Truhlar   : smd solvation model
   Lars Goerigk                                  : TD-DFT with DH, B97 family of functionals
   V. Asgeirsson, H. Jonsson                     : NEB implementation
   FAccTs GmbH                                   : IRC, NEB, NEB-TS, Multilevel, MM, QM/MM, CI optimization
   S Lehtola, MJT Oliveira, MAL Marques          : LibXC Library


 Your calculation uses the libint2 library for the computation of 2-el integrals
 For citations please refer to: http://libint.valeyev.net

 Your ORCA version has been built with support for libXC version: 4.2.3
 For citations please refer to: https://tddft.org/programs/libxc/

 This ORCA versions uses:
   CBLAS   interface :  Fast vector & matrix operations
   LAPACKE interface :  Fast linear algebra routines
   SCALAPACK package :  Parallel linear algebra routines


Your calculation utilizes the atom-pairwise dispersion correction
with the Becke-Johnson damping scheme (D3BJ)
Cite in your paper:
S.Grimme, S.Ehrlich, L.Goerigk, J Comput Chem, (2011), 32, 1456–1465 
S.Grimme, J.Antony, S.Ehrlich and H.Krieg, J.Chem.Phys., 132, (2010), 154104 
   

----- Orbital basis set information -----
Your calculation utilizes the basis: def2-TZVPPD
   F. Weigend and R. Ahlrichs, Phys. Chem. Chem. Phys. 7, 3297 (2005).
   D. Rappoport and F. Furche, J. Chem. Phys. 133 134105 (2010).

----- AuxJ basis set information -----
Your calculation utilizes the auxiliary basis: def2/J
   F. Weigend, Phys. Chem. Chem. Phys. 8, 1057 (2006).

================================================================================
                                        WARNINGS
                       Please study these warnings very carefully!
================================================================================


WARNING: your system is open-shell and RHF/RKS was chosen
  ===> : WILL SWITCH to UHF/UKS


INFO   : the flag for use of LIBINT has been found!

================================================================================
                                       INPUT FILE
================================================================================
NAME = Cu03N0_LIN.in
|  1> #
|  2> # Cu03N0_LIN TPSS-D3BJ/Def2-TZVPPD
|  3> #
|  4> ! tpss d3bj def2-tzvppd def2/j grid4 nofinalgrid
|  5> 
|  6> *xyz 0 2
|  7> Cu       0.000000    0.000000    0.000000 
|  8> Cu       0.000000    0.000000    2.291099 
|  9> Cu       0.000000    0.000000   -2.291099 
| 10> *
| 11> 
| 12> %maxcore 5000
| 13> 
| 14> %pal
| 15> nprocs = 24
| 16> end
| 17> 
| 18> 
| 19>                          ****END OF INPUT****
================================================================================

                       ****************************
                       * Single Point Calculation *
                       ****************************

---------------------------------
CARTESIAN COORDINATES (ANGSTROEM)
---------------------------------
  Cu     0.000000    0.000000    0.000000
  Cu     0.000000    0.000000    2.291099
  Cu     0.000000    0.000000   -2.291099

----------------------------
CARTESIAN COORDINATES (A.U.)
----------------------------
  NO LB      ZA    FRAG     MASS         X           Y           Z
   0 Cu   29.0000    0    63.550    0.000000    0.000000    0.000000
   1 Cu   29.0000    0    63.550    0.000000    0.000000    4.329550
   2 Cu   29.0000    0    63.550    0.000000    0.000000   -4.329550

--------------------------------
INTERNAL COORDINATES (ANGSTROEM)
--------------------------------
 Cu     0   0   0     0.000000000000     0.00000000     0.00000000
 Cu     1   0   0     2.291099000000     0.00000000     0.00000000
 Cu     1   2   0     2.291099000000   180.00000000     0.00000000

---------------------------
INTERNAL COORDINATES (A.U.)
---------------------------
 Cu     0   0   0     0.000000000000     0.00000000     0.00000000
 Cu     1   0   0     4.329549655701     0.00000000     0.00000000
 Cu     1   2   0     4.329549655701   180.00000000     0.00000000

---------------------
BASIS SET INFORMATION
---------------------
There are 1 groups of distinct atoms

 Group   1 Type Cu  : 17s13p7d2f1g contracted to 6s6p4d2f1g pattern {842111/631111/4111/11/1}

Atom   0Cu   basis set group =>   1
Atom   1Cu   basis set group =>   1
Atom   2Cu   basis set group =>   1
---------------------------------
AUXILIARY/J BASIS SET INFORMATION
---------------------------------
There are 1 groups of distinct atoms

 Group   1 Type Cu  : 19s5p5d3f3g contracted to 8s5p4d3f3g pattern {121111111/11111/2111/111/111}

Atom   0Cu   basis set group =>   1
Atom   1Cu   basis set group =>   1
Atom   2Cu   basis set group =>   1


           ************************************************************
           *        Program running with 24 parallel MPI-processes    *
           *              working on a common directory               *
           ************************************************************
------------------------------------------------------------------------------
                           ORCA GTO INTEGRAL CALCULATION
                           -- RI-GTO INTEGRALS CHOSEN --
------------------------------------------------------------------------------

                         BASIS SET STATISTICS AND STARTUP INFO

Gaussian basis set:
 # of primitive gaussian shells          ...  120
 # of primitive gaussian functions       ...  342
 # of contracted shells                  ...   57
 # of contracted basis functions         ...  201
 Highest angular momentum                ...    4
 Maximum contraction depth               ...    8
Auxiliary gaussian basis set:
 # of primitive gaussian shells          ...  105
 # of primitive gaussian functions       ...  321
 # of contracted shells                  ...   69
 # of contracted aux-basis functions     ...  273
 Highest angular momentum                ...    4
 Maximum contraction depth               ...   12
Ratio of auxiliary to basis functions    ...  1.36
Integral package used                  ... LIBINT
 One Electron integrals                  ... done
 Ordering auxiliary basis shells         ... done
 Integral threshhold             Thresh  ...  1.000e-10
 Primitive cut-off               TCut    ...  1.000e-11
 Pre-screening matrix                    ... done
 Shell pair data                         ... 
 Ordering of the shell pairs             ... done (   0.000 sec) 1434 of 1653 pairs
 Determination of significant pairs      ... done (   0.000 sec)
 Creation of shell pair data             ... done (   0.000 sec)
 Storage of shell pair data              ... done (   0.047 sec)
 Shell pair data done in (   0.047 sec)
 Computing two index integrals           ... done
 Cholesky decomposition of the V-matrix  ... done


Timings:
 Total evaluation time                   ...   0.304 sec (  0.005 min)
 One electron matrix time                ...   0.033 sec (  0.001 min) = 10.7%
 Schwartz matrix evaluation time         ...   0.195 sec (  0.003 min) = 64.2%
 Two index repulsion integral time       ...   0.001 sec (  0.000 min) =  0.4%
 Cholesky decomposition of V             ...   0.002 sec (  0.000 min) =  0.5%
 Three index repulsion integral time     ...   0.000 sec (  0.000 min) =  0.0%



           ************************************************************
           *        Program running with 24 parallel MPI-processes    *
           *              working on a common directory               *
           ************************************************************
-------------------------------------------------------------------------------
                                 ORCA SCF
-------------------------------------------------------------------------------

------------
SCF SETTINGS
------------
Hamiltonian:
 Density Functional     Method          .... DFT(GTOs)
 Exchange Functional    Exchange        .... TPSS
 Correlation Functional Correlation     .... TPSS
 LDA part of GGA corr.  LDAOpt          .... PW91-LDA
 Gradients option       PostSCFGGA      .... off
   Density functional embedding theory  .... OFF
   NL short-range parameter             ....  5.000000
 RI-approximation to the Coulomb term is turned on
   Number of auxiliary basis functions  .... 273


General Settings:
 Integral files         IntName         .... Cu03N0_LIN
 Hartree-Fock type      HFTyp           .... UHF
 Total Charge           Charge          ....    0
 Multiplicity           Mult            ....    2
 Number of Electrons    NEL             ....   87
 Basis Dimension        Dim             ....  201
 Nuclear Repulsion      ENuc            ....    485.6163266846 Eh

Convergence Acceleration:
 DIIS                   CNVDIIS         .... on
   Start iteration      DIISMaxIt       ....    12
   Startup error        DIISStart       ....  0.200000
   # of expansion vecs  DIISMaxEq       ....     5
   Bias factor          DIISBfac        ....   1.050
   Max. coefficient     DIISMaxC        ....  10.000
 Newton-Raphson         CNVNR           .... off
 SOSCF                  CNVSOSCF        .... off
 Level Shifting         CNVShift        .... on
   Level shift para.    LevelShift      ....    0.2500
   Turn off err/grad.   ShiftErr        ....    0.0010
 Zerner damping         CNVZerner       .... off
 Static damping         CNVDamp         .... on
   Fraction old density DampFac         ....    0.7000
   Max. Damping (<1)    DampMax         ....    0.9800
   Min. Damping (>=0)   DampMin         ....    0.0000
   Turn off err/grad.   DampErr         ....    0.1000
 Fernandez-Rico         CNVRico         .... off

SCF Procedure:
 Maximum # iterations   MaxIter         ....   125
 SCF integral mode      SCFMode         .... Direct
   Integral package                     .... LIBINT
 Reset frequency        DirectResetFreq ....    20
 Integral Threshold     Thresh          ....  1.000e-10 Eh
 Primitive CutOff       TCut            ....  1.000e-11 Eh

Convergence Tolerance:
 Convergence Check Mode ConvCheckMode   .... Total+1el-Energy
 Convergence forced     ConvForced      .... 0
 Energy Change          TolE            ....  1.000e-06 Eh
 1-El. energy change                    ....  1.000e-03 Eh
 DIIS Error             TolErr          ....  1.000e-06


Diagonalization of the overlap matrix:
Smallest eigenvalue                        ... 3.321e-04
Time for diagonalization                   ...    0.008 sec
Threshold for overlap eigenvalues          ... 1.000e-08
Number of eigenvalues below threshold      ... 0
Time for construction of square roots      ...    0.006 sec
Total time needed                          ...    0.015 sec

-------------------
DFT GRID GENERATION
-------------------

General Integration Accuracy     IntAcc      ...  4.670
Radial Grid Type                 RadialGrid  ... Gauss-Chebyshev
Angular Grid (max. acc.)         AngularGrid ... Lebedev-302
Angular grid pruning method      GridPruning ... 3 (G Style)
Weight generation scheme         WeightScheme... Becke
Basis function cutoff            BFCut       ...    1.0000e-10
Integration weight cutoff        WCut        ...    1.0000e-14
Grids for H and He will be reduced by one unit

# of grid points (after initial pruning)     ...  28668 (   0.0 sec)
# of grid points (after weights+screening)   ...  28508 (   0.0 sec)
nearest neighbour list constructed           ...    0.0 sec
Grid point re-assignment to atoms done       ...    0.0 sec
Grid point division into batches done        ...    0.2 sec
Reduced shell lists constructed in    0.2 sec

Total number of grid points                  ...    28508
Total number of batches                      ...      447
Average number of points per batch           ...       63
Average number of grid points per atom       ...     9503
Average number of shells per batch           ...    18.10 (31.75%)
Average number of basis functions per batch  ...    52.30 (26.02%)
Average number of large shells per batch     ...    15.95 (88.12%)
Average number of large basis fcns per batch ...    46.25 (88.43%)
Maximum spatial batch extension              ...  26.18, 26.18,  4.32 au
Average spatial batch extension              ...   0.42,  0.42,  0.18 au

Time for grid setup =    0.261 sec

------------------------------
INITIAL GUESS: MODEL POTENTIAL
------------------------------
Loading Hartree-Fock densities                     ... done
Calculating cut-offs                               ... done
Setting up the integral package                    ... done
Initializing the effective Hamiltonian             ... done
Starting the Coulomb interaction                   ... done (   0.0 sec)
Reading the grid                                   ... done
Mapping shells                                     ... done
Starting the XC term evaluation                    ... done (   0.0 sec)
  promolecular density results
     # of electrons  =     87.000073666
     EX              =   -196.438204401
     EC              =     -4.046522291
     EX+EC           =   -200.484726692
Transforming the Hamiltonian                       ... done (   0.0 sec)
Diagonalizing the Hamiltonian                      ... done (   0.0 sec)
Back transforming the eigenvectors                 ... done (   0.0 sec)
Now organizing SCF variables                       ... done
                      ------------------
                      INITIAL GUESS DONE (   0.4 sec)
                      ------------------
--------------
SCF ITERATIONS
--------------
ITER       Energy         Delta-E        Max-DP      RMS-DP      [F,P]     Damp
               ***  Starting incremental Fock matrix formation  ***
  0  -4921.5237582749   0.000000000000 0.08301133  0.00113871  0.2141349 0.7000
  1  -4921.5817752249  -0.058016950024 0.05170865  0.00056434  0.0914366 0.7000
                               ***Turning on DIIS***
  2  -4921.6061555999  -0.024380374976 0.09577520  0.00092567  0.0585715 0.0000
  3  -4921.6498875916  -0.043731991762 0.00718142  0.00011208  0.1388203 0.7000
  4  -4921.6577510188  -0.007863427109 0.00864376  0.00012193  0.1030471 0.7000
  5  -4921.6630601554  -0.005309136631 0.02572774  0.00036096  0.0745970 0.0000
  6  -4921.6713951463  -0.008334990879 0.00502811  0.00007361  0.0098149 0.0000
  7  -4921.6715246170  -0.000129470702 0.00297178  0.00003583  0.0022971 0.0000
  8  -4921.6715449959  -0.000020378937 0.00190385  0.00001869  0.0023096 0.0000
  9  -4921.6715606179  -0.000015622040 0.00286681  0.00002823  0.0004793 0.0000
 10  -4921.6715683942  -0.000007776243 0.00082504  0.00000640  0.0001702 0.0000
 11  -4921.6715694555  -0.000001061305 0.00048842  0.00000386  0.0000486 0.0000
 12  -4921.6715692800   0.000000175490 0.00007231  0.00000087  0.0001763 0.0000
 13  -4921.6715695381  -0.000000258082 0.00013995  0.00000142  0.0000350 0.0000
                 **** Energy Check signals convergence ****

               *****************************************************
               *                     SUCCESS                       *
               *           SCF CONVERGED AFTER  14 CYCLES          *
               *****************************************************


----------------
TOTAL SCF ENERGY
----------------

Total Energy       :        -4921.67156966 Eh         -133925.49205 eV

Components:
Nuclear Repulsion  :          485.61632668 Eh           13214.29205 eV
Electronic Energy  :        -5407.28789635 Eh         -147139.78410 eV
One Electron Energy:        -7831.34277032 Eh         -213101.67066 eV
Two Electron Energy:         2424.05487397 Eh           65961.88656 eV

Virial components:
Potential Energy   :        -9835.17459246 Eh         -267628.70664 eV
Kinetic Energy     :         4913.50302280 Eh          133703.21459 eV
Virial Ratio       :            2.00166247


DFT components:
N(Alpha)           :       44.000004190877 electrons
N(Beta)            :       42.999999851859 electrons
N(Total)           :       87.000004042736 electrons
E(X)               :     -197.488043419417 Eh       
E(C)               :       -4.078516287486 Eh       
E(XC)              :     -201.566559706903 Eh       
DFET-embed. en.    :        0.000000000000 Eh       

---------------
SCF CONVERGENCE
---------------

  Last Energy change         ...   -1.2583e-07  Tolerance :   1.0000e-06
  Last MAX-Density change    ...    3.5110e-05  Tolerance :   1.0000e-05
  Last RMS-Density change    ...    3.2669e-07  Tolerance :   1.0000e-06
  Last DIIS Error            ...    1.5507e-05  Tolerance :   1.0000e-06

             **** THE GBW FILE WAS UPDATED (Cu03N0_LIN.gbw) ****
             **** DENSITY FILE WAS UPDATED (Cu03N0_LIN.scfp) ****
             **** ENERGY FILE WAS UPDATED (Cu03N0_LIN.en.tmp) ****
----------------------
UHF SPIN CONTAMINATION
----------------------

Warning: in a DFT calculation there is little theoretical justification to 
         calculate <S**2> as in Hartree-Fock theory. We will do it anyways
         but you should keep in mind that the values have only limited relevance

Expectation value of <S**2>     :     0.758062
Ideal value S*(S+1) for S=0.5   :     0.750000
Deviation                       :     0.008062

             **** THE GBW FILE WAS UPDATED (Cu03N0_LIN.gbw) ****
             **** DENSITY FILE WAS UPDATED (Cu03N0_LIN.scfp) ****
----------------
ORBITAL ENERGIES
----------------
                 SPIN UP ORBITALS
  NO   OCC          E(Eh)            E(eV) 
   0   1.0000    -322.092302     -8764.5771 
   1   1.0000    -322.092299     -8764.5770 
   2   1.0000    -322.078122     -8764.1913 
   3   1.0000     -38.381627     -1044.4172 
   4   1.0000     -38.381603     -1044.4165 
   5   1.0000     -38.371705     -1044.1472 
   6   1.0000     -33.600998      -914.3296 
   7   1.0000     -33.600995      -914.3296 
   8   1.0000     -33.600547      -914.3174 
   9   1.0000     -33.600547      -914.3174 
  10   1.0000     -33.600544      -914.3173 
  11   1.0000     -33.600544      -914.3173 
  12   1.0000     -33.590832      -914.0530 
  13   1.0000     -33.590365      -914.0403 
  14   1.0000     -33.590365      -914.0403 
  15   1.0000      -4.140086      -112.6575 
  16   1.0000      -4.140071      -112.6571 
  17   1.0000      -4.128315      -112.3372 
  18   1.0000      -2.657089       -72.3031 
  19   1.0000      -2.656573       -72.2890 
  20   1.0000      -2.649649       -72.1006 
  21   1.0000      -2.649649       -72.1006 
  22   1.0000      -2.649645       -72.1005 
  23   1.0000      -2.649645       -72.1005 
  24   1.0000      -2.643170       -71.9243 
  25   1.0000      -2.637609       -71.7730 
  26   1.0000      -2.637609       -71.7730 
  27   1.0000      -0.259704        -7.0669 
  28   1.0000      -0.221821        -6.0361 
  29   1.0000      -0.221821        -6.0361 
  30   1.0000      -0.211845        -5.7646 
  31   1.0000      -0.207505        -5.6465 
  32   1.0000      -0.207505        -5.6465 
  33   1.0000      -0.203315        -5.5325 
  34   1.0000      -0.202008        -5.4969 
  35   1.0000      -0.202000        -5.4967 
  36   1.0000      -0.200446        -5.4544 
  37   1.0000      -0.200438        -5.4542 
  38   1.0000      -0.182733        -4.9724 
  39   1.0000      -0.182722        -4.9721 
  40   1.0000      -0.180186        -4.9031 
  41   1.0000      -0.176620        -4.8061 
  42   1.0000      -0.176620        -4.8061 
  43   1.0000      -0.174032        -4.7356 
  44   0.0000      -0.088556        -2.4097 
  45   0.0000      -0.054311        -1.4779 
  46   0.0000      -0.054311        -1.4779 
  47   0.0000      -0.026656        -0.7254 
  48   0.0000      -0.013920        -0.3788 
  49   0.0000      -0.013920        -0.3788 
  50   0.0000       0.043566         1.1855 
  51   0.0000       0.047939         1.3045 
  52   0.0000       0.053384         1.4527 
  53   0.0000       0.053384         1.4527 
  54   0.0000       0.068437         1.8623 
  55   0.0000       0.097959         2.6656 
  56   0.0000       0.097959         2.6656 
  57   0.0000       0.112384         3.0581 
  58   0.0000       0.116199         3.1619 
  59   0.0000       0.116199         3.1619 
  60   0.0000       0.144654         3.9362 
  61   0.0000       0.144654         3.9362 
  62   0.0000       0.167431         4.5560 
  63   0.0000       0.175899         4.7865 
  64   0.0000       0.175899         4.7865 
  65   0.0000       0.178683         4.8622 
  66   0.0000       0.178683         4.8622 
  67   0.0000       0.190927         5.1954 
  68   0.0000       0.211457         5.7540 
  69   0.0000       0.211457         5.7540 
  70   0.0000       0.220278         5.9941 
  71   0.0000       0.268937         7.3181 
  72   0.0000       0.268938         7.3182 
  73   0.0000       0.273181         7.4336 
  74   0.0000       0.319172         8.6851 
  75   0.0000       0.319172         8.6851 
  76   0.0000       0.343308         9.3419 
  77   0.0000       0.431829        11.7507 
  78   0.0000       0.431829        11.7507 
  79   0.0000       0.460058        12.5188 
  80   0.0000       0.523245        14.2382 
  81   0.0000       0.581519        15.8239 
  82   0.0000       0.626967        17.0607 
  83   0.0000       0.626967        17.0607 
  84   0.0000       0.649549        17.6751 
  85   0.0000       0.649549        17.6751 
  86   0.0000       0.714273        19.4364 
  87   0.0000       0.714273        19.4364 
  88   0.0000       0.733125        19.9493 
  89   0.0000       0.816306        22.2128 
  90   0.0000       0.816307        22.2128 
  91   0.0000       0.855281        23.2734 
  92   0.0000       0.855283        23.2734 
  93   0.0000       0.857630        23.3373 
  94   0.0000       0.859996        23.4017 
  95   0.0000       0.859996        23.4017 
  96   0.0000       0.910738        24.7824 
  97   0.0000       0.914268        24.8785 
  98   0.0000       0.914269        24.8785 
  99   0.0000       0.931496        25.3473 
 100   0.0000       0.931500        25.3474 
 101   0.0000       1.122570        30.5467 
 102   0.0000       1.122570        30.5467 
 103   0.0000       1.154405        31.4130 
 104   0.0000       1.439773        39.1782 
 105   0.0000       2.876463        78.2726 
 106   0.0000       2.893264        78.7297 
 107   0.0000       2.893264        78.7297 
 108   0.0000       2.989390        81.3454 
 109   0.0000       2.992564        81.4318 
 110   0.0000       2.992564        81.4318 
 111   0.0000       3.018776        82.1451 
 112   0.0000       3.018776        82.1451 
 113   0.0000       3.061595        83.3102 
 114   0.0000       3.138904        85.4139 
 115   0.0000       3.274794        89.1117 
 116   0.0000       3.309476        90.0554 
 117   0.0000       3.347807        91.0985 
 118   0.0000       3.347807        91.0985 
 119   0.0000       3.351955        91.2113 
 120   0.0000       3.351955        91.2113 
 121   0.0000       3.366199        91.5989 
 122   0.0000       3.366211        91.5993 
 123   0.0000       3.367019        91.6212 
 124   0.0000       3.367031        91.6216 
 125   0.0000       3.369174        91.6799 
 126   0.0000       3.369174        91.6799 
 127   0.0000       3.369176        91.6799 
 128   0.0000       3.369176        91.6799 
 129   0.0000       3.388873        92.2159 
 130   0.0000       3.388893        92.2165 
 131   0.0000       3.393083        92.3305 
 132   0.0000       3.393083        92.3305 
 133   0.0000       3.406459        92.6945 
 134   0.0000       3.406459        92.6945 
 135   0.0000       3.412006        92.8454 
 136   0.0000       3.489904        94.9651 
 137   0.0000       3.564179        96.9862 
 138   0.0000       3.564244        96.9880 
 139   0.0000       3.588161        97.6388 
 140   0.0000       3.588219        97.6404 
 141   0.0000       3.631807        98.8265 
 142   0.0000       3.631807        98.8265 
 143   0.0000       3.639285        99.0300 
 144   0.0000       3.639352        99.0318 
 145   0.0000       3.697250       100.6073 
 146   0.0000       3.699815       100.6771 
 147   0.0000       3.699815       100.6771 
 148   0.0000       3.796627       103.3115 
 149   0.0000       3.796627       103.3115 
 150   0.0000       3.925666       106.8228 
 151   0.0000       4.028174       109.6122 
 152   0.0000       4.373190       119.0005 
 153   0.0000      12.902524       351.0955 
 154   0.0000      12.902524       351.0955 
 155   0.0000      12.903293       351.1164 
 156   0.0000      12.903297       351.1166 
 157   0.0000      12.903297       351.1166 
 158   0.0000      12.903557       351.1236 
 159   0.0000      12.903814       351.1306 
 160   0.0000      12.903873       351.1322 
 161   0.0000      12.904820       351.1580 
 162   0.0000      12.904882       351.1597 
 163   0.0000      12.906854       351.2133 
 164   0.0000      12.906854       351.2133 
 165   0.0000      12.906860       351.2135 
 166   0.0000      12.906860       351.2135 
 167   0.0000      12.908852       351.2677 
 168   0.0000      12.908853       351.2677 
 169   0.0000      12.909076       351.2738 
 170   0.0000      12.909076       351.2738 
 171   0.0000      12.916787       351.4836 
 172   0.0000      12.916787       351.4836 
 173   0.0000      12.917058       351.4910 
 174   0.0000      12.918664       351.5347 
 175   0.0000      12.919477       351.5568 
 176   0.0000      12.920560       351.5863 
 177   0.0000      12.920560       351.5863 
 178   0.0000      12.923392       351.6634 
 179   0.0000      12.923697       351.6717 
 180   0.0000      12.988414       353.4327 
 181   0.0000      12.988414       353.4327 
 182   0.0000      12.991889       353.5273 
 183   0.0000      12.992118       353.5335 
 184   0.0000      12.993035       353.5585 
 185   0.0000      12.993261       353.5646 
 186   0.0000      12.994412       353.5959 
 187   0.0000      12.995719       353.6315 
 188   0.0000      12.995719       353.6315 
 189   0.0000      12.995719       353.6315 
 190   0.0000      12.995719       353.6315 
 191   0.0000      13.004101       353.8596 
 192   0.0000      13.004392       353.8675 
 193   0.0000      13.005457       353.8965 
 194   0.0000      13.005457       353.8965 
 195   0.0000      13.006069       353.9131 
 196   0.0000      13.006069       353.9131 
 197   0.0000      13.020888       354.3164 
 198   0.0000      13.020888       354.3164 
 199   0.0000      13.085449       356.0732 
 200   0.0000      13.123698       357.1140 

                 SPIN DOWN ORBITALS
  NO   OCC          E(Eh)            E(eV) 
   0   1.0000    -322.091776     -8764.5628 
   1   1.0000    -322.091772     -8764.5627 
   2   1.0000    -322.078072     -8764.1899 
   3   1.0000     -38.382050     -1044.4287 
   4   1.0000     -38.382026     -1044.4280 
   5   1.0000     -38.372055     -1044.1567 
   6   1.0000     -33.601438      -914.3416 
   7   1.0000     -33.601435      -914.3415 
   8   1.0000     -33.600706      -914.3217 
   9   1.0000     -33.600706      -914.3217 
  10   1.0000     -33.600703      -914.3216 
  11   1.0000     -33.600703      -914.3216 
  12   1.0000     -33.591055      -914.0591 
  13   1.0000     -33.590595      -914.0465 
  14   1.0000     -33.590595      -914.0465 
  15   1.0000      -4.140563      -112.6705 
  16   1.0000      -4.140551      -112.6701 
  17   1.0000      -4.129008      -112.3560 
  18   1.0000      -2.655496       -72.2597 
  19   1.0000      -2.654880       -72.2429 
  20   1.0000      -2.650803       -72.1320 
  21   1.0000      -2.650803       -72.1320 
  22   1.0000      -2.650798       -72.1319 
  23   1.0000      -2.650798       -72.1319 
  24   1.0000      -2.643766       -71.9405 
  25   1.0000      -2.638283       -71.7913 
  26   1.0000      -2.638283       -71.7913 
  27   1.0000      -0.253126        -6.8879 
  28   1.0000      -0.219319        -5.9680 
  29   1.0000      -0.219319        -5.9680 
  30   1.0000      -0.207864        -5.6563 
  31   1.0000      -0.204291        -5.5590 
  32   1.0000      -0.204291        -5.5590 
  33   1.0000      -0.198333        -5.3969 
  34   1.0000      -0.198325        -5.3967 
  35   1.0000      -0.196485        -5.3466 
  36   1.0000      -0.196477        -5.3464 
  37   1.0000      -0.190611        -5.1868 
  38   1.0000      -0.183138        -4.9834 
  39   1.0000      -0.183126        -4.9831 
  40   1.0000      -0.175936        -4.7875 
  41   1.0000      -0.175936        -4.7875 
  42   1.0000      -0.173074        -4.7096 
  43   0.0000      -0.156245        -4.2516 
  44   0.0000      -0.074004        -2.0137 
  45   0.0000      -0.042580        -1.1587 
  46   0.0000      -0.042580        -1.1587 
  47   0.0000      -0.013367        -0.3637 
  48   0.0000       0.002591         0.0705 
  49   0.0000       0.002591         0.0705 
  50   0.0000       0.055138         1.5004 
  51   0.0000       0.059447         1.6176 
  52   0.0000       0.060536         1.6473 
  53   0.0000       0.060536         1.6473 
  54   0.0000       0.073337         1.9956 
  55   0.0000       0.108403         2.9498 
  56   0.0000       0.108403         2.9498 
  57   0.0000       0.120364         3.2753 
  58   0.0000       0.133161         3.6235 
  59   0.0000       0.133161         3.6235 
  60   0.0000       0.151639         4.1263 
  61   0.0000       0.151639         4.1263 
  62   0.0000       0.176310         4.7976 
  63   0.0000       0.185649         5.0518 
  64   0.0000       0.185649         5.0518 
  65   0.0000       0.190097         5.1728 
  66   0.0000       0.190098         5.1728 
  67   0.0000       0.201093         5.4720 
  68   0.0000       0.220840         6.0094 
  69   0.0000       0.220840         6.0094 
  70   0.0000       0.230535         6.2732 
  71   0.0000       0.274199         7.4613 
  72   0.0000       0.274200         7.4614 
  73   0.0000       0.282270         7.6810 
  74   0.0000       0.328813         8.9475 
  75   0.0000       0.328813         8.9475 
  76   0.0000       0.350388         9.5346 
  77   0.0000       0.441805        12.0221 
  78   0.0000       0.441805        12.0221 
  79   0.0000       0.465569        12.6688 
  80   0.0000       0.533097        14.5063 
  81   0.0000       0.590550        16.0697 
  82   0.0000       0.635055        17.2807 
  83   0.0000       0.635055        17.2807 
  84   0.0000       0.661469        17.9995 
  85   0.0000       0.661469        17.9995 
  86   0.0000       0.720055        19.5937 
  87   0.0000       0.720055        19.5937 
  88   0.0000       0.740505        20.1502 
  89   0.0000       0.829425        22.5698 
  90   0.0000       0.829427        22.5699 
  91   0.0000       0.865709        23.5571 
  92   0.0000       0.870997        23.7010 
  93   0.0000       0.870997        23.7010 
  94   0.0000       0.877890        23.8886 
  95   0.0000       0.877894        23.8887 
  96   0.0000       0.924199        25.1487 
  97   0.0000       0.930103        25.3094 
  98   0.0000       0.930103        25.3094 
  99   0.0000       0.939889        25.5757 
 100   0.0000       0.939895        25.5758 
 101   0.0000       1.132802        30.8251 
 102   0.0000       1.132802        30.8251 
 103   0.0000       1.167442        31.7677 
 104   0.0000       1.448283        39.4098 
 105   0.0000       2.880672        78.3871 
 106   0.0000       2.898034        78.8595 
 107   0.0000       2.898034        78.8595 
 108   0.0000       2.992090        81.4189 
 109   0.0000       2.999193        81.6122 
 110   0.0000       2.999193        81.6122 
 111   0.0000       3.020648        82.1960 
 112   0.0000       3.020648        82.1960 
 113   0.0000       3.065873        83.4266 
 114   0.0000       3.143091        85.5278 
 115   0.0000       3.279811        89.2482 
 116   0.0000       3.312096        90.1267 
 117   0.0000       3.348938        91.1292 
 118   0.0000       3.348938        91.1292 
 119   0.0000       3.354526        91.2813 
 120   0.0000       3.354526        91.2813 
 121   0.0000       3.369497        91.6887 
 122   0.0000       3.369503        91.6888 
 123   0.0000       3.370484        91.7155 
 124   0.0000       3.370489        91.7157 
 125   0.0000       3.375155        91.8426 
 126   0.0000       3.375155        91.8426 
 127   0.0000       3.375158        91.8427 
 128   0.0000       3.375158        91.8427 
 129   0.0000       3.388676        92.2105 
 130   0.0000       3.388693        92.2110 
 131   0.0000       3.392602        92.3174 
 132   0.0000       3.392602        92.3174 
 133   0.0000       3.408773        92.7574 
 134   0.0000       3.408773        92.7574 
 135   0.0000       3.413897        92.8969 
 136   0.0000       3.492327        95.0310 
 137   0.0000       3.567401        97.0739 
 138   0.0000       3.567461        97.0756 
 139   0.0000       3.593252        97.7773 
 140   0.0000       3.593304        97.7788 
 141   0.0000       3.635141        98.9172 
 142   0.0000       3.635141        98.9172 
 143   0.0000       3.640668        99.0676 
 144   0.0000       3.640732        99.0693 
 145   0.0000       3.700366       100.6921 
 146   0.0000       3.702974       100.7630 
 147   0.0000       3.702974       100.7630 
 148   0.0000       3.797613       103.3383 
 149   0.0000       3.797613       103.3383 
 150   0.0000       3.929660       106.9315 
 151   0.0000       4.031642       109.7066 
 152   0.0000       4.376141       119.0808 
 153   0.0000      12.902316       351.0899 
 154   0.0000      12.902316       351.0899 
 155   0.0000      12.903078       351.1106 
 156   0.0000      12.903085       351.1108 
 157   0.0000      12.903085       351.1108 
 158   0.0000      12.903137       351.1122 
 159   0.0000      12.903317       351.1171 
 160   0.0000      12.903583       351.1244 
 161   0.0000      12.904087       351.1381 
 162   0.0000      12.904148       351.1397 
 163   0.0000      12.905658       351.1808 
 164   0.0000      12.905658       351.1808 
 165   0.0000      12.905670       351.1811 
 166   0.0000      12.905670       351.1811 
 167   0.0000      12.907870       351.2410 
 168   0.0000      12.907870       351.2410 
 169   0.0000      12.908093       351.2471 
 170   0.0000      12.908093       351.2471 
 171   0.0000      12.916147       351.4662 
 172   0.0000      12.916147       351.4662 
 173   0.0000      12.916236       351.4686 
 174   0.0000      12.917844       351.5124 
 175   0.0000      12.918976       351.5432 
 176   0.0000      12.919688       351.5626 
 177   0.0000      12.919688       351.5626 
 178   0.0000      12.922966       351.6518 
 179   0.0000      12.923271       351.6601 
 180   0.0000      12.989279       353.4563 
 181   0.0000      12.989279       353.4563 
 182   0.0000      12.990936       353.5013 
 183   0.0000      12.991164       353.5075 
 184   0.0000      12.992082       353.5325 
 185   0.0000      12.992307       353.5386 
 186   0.0000      12.993827       353.5800 
 187   0.0000      12.993827       353.5800 
 188   0.0000      12.993827       353.5800 
 189   0.0000      12.993827       353.5800 
 190   0.0000      12.995735       353.6319 
 191   0.0000      13.002886       353.8265 
 192   0.0000      13.003177       353.8344 
 193   0.0000      13.005422       353.8955 
 194   0.0000      13.005422       353.8955 
 195   0.0000      13.006505       353.9250 
 196   0.0000      13.006505       353.9250 
 197   0.0000      13.020466       354.3049 
 198   0.0000      13.020466       354.3049 
 199   0.0000      13.087238       356.1219 
 200   0.0000      13.124017       357.1227 

                    ********************************
                    * MULLIKEN POPULATION ANALYSIS *
                    ********************************

--------------------------------------------
MULLIKEN ATOMIC CHARGES AND SPIN POPULATIONS
--------------------------------------------
   0 Cu:   -0.336488   -0.126239
   1 Cu:    0.168246    0.563128
   2 Cu:    0.168243    0.563111
Sum of atomic charges         :   -0.0000000
Sum of atomic spin populations:    1.0000000

-----------------------------------------------------
MULLIKEN REDUCED ORBITAL CHARGES AND SPIN POPULATIONS
-----------------------------------------------------
CHARGE
  0 Cus       :     7.441021  s :     7.441021
      pz      :     3.943620  p :    11.991970
      px      :     4.024175
      py      :     4.024175
      dz2     :     1.970114  d :     9.903200
      dxz     :     1.966844
      dyz     :     1.966844
      dx2y2   :     1.999699
      dxy     :     1.999699
      f0      :     0.000120  f :     0.000297
      f+1     :     0.000079
      f-1     :     0.000079
      f+2     :     0.000009
      f-2     :     0.000009
      f+3     :     0.000000
      f-3     :     0.000000
      g0      :     0.000000  g :     0.000001
      g+1     :     0.000000
      g-1     :     0.000000
      g+2     :     0.000000
      g-2     :     0.000000
      g+3     :     0.000000
      g-3     :     0.000000
      g+4     :     0.000000
      g-4     :     0.000000
  1 Cus       :     6.919879  s :     6.919879
      pz      :     3.965625  p :    11.998732
      px      :     4.016553
      py      :     4.016553
      dz2     :     1.937002  d :     9.912977
      dxz     :     1.987853
      dyz     :     1.987853
      dx2y2   :     2.000135
      dxy     :     2.000135
      f0      :     0.000054  f :     0.000165
      f+1     :     0.000045
      f-1     :     0.000045
      f+2     :     0.000011
      f-2     :     0.000011
      f+3     :     0.000000
      f-3     :     0.000000
      g0      :     0.000000  g :     0.000001
      g+1     :     0.000000
      g-1     :     0.000000
      g+2     :     0.000000
      g-2     :     0.000000
      g+3     :     0.000000
      g-3     :     0.000000
      g+4     :     0.000000
      g-4     :     0.000000
  2 Cus       :     6.919886  s :     6.919886
      pz      :     3.965623  p :    11.998729
      px      :     4.016553
      py      :     4.016553
      dz2     :     1.937001  d :     9.912976
      dxz     :     1.987853
      dyz     :     1.987853
      dx2y2   :     2.000135
      dxy     :     2.000135
      f0      :     0.000054  f :     0.000165
      f+1     :     0.000045
      f-1     :     0.000045
      f+2     :     0.000011
      f-2     :     0.000011
      f+3     :     0.000000
      f-3     :     0.000000
      g0      :     0.000000  g :     0.000001
      g+1     :     0.000000
      g-1     :     0.000000
      g+2     :     0.000000
      g-2     :     0.000000
      g+3     :     0.000000
      g-3     :     0.000000
      g+4     :     0.000000
      g-4     :     0.000000

SPIN
  0 Cus       :    -0.095162  s :    -0.095162
      pz      :    -0.017970  p :    -0.018881
      px      :    -0.000456
      py      :    -0.000456
      dz2     :     0.000251  d :    -0.012201
      dxz     :    -0.006001
      dyz     :    -0.006001
      dx2y2   :    -0.000224
      dxy     :    -0.000224
      f0      :     0.000001  f :     0.000005
      f+1     :     0.000002
      f-1     :     0.000002
      f+2     :     0.000000
      f-2     :     0.000000
      f+3     :    -0.000000
      f-3     :    -0.000000
      g0      :     0.000000  g :     0.000000
      g+1     :     0.000000
      g-1     :     0.000000
      g+2     :    -0.000000
      g-2     :    -0.000000
      g+3     :    -0.000000
      g-3     :    -0.000000
      g+4     :    -0.000000
      g-4     :    -0.000000
  1 Cus       :     0.542064  s :     0.542064
      pz      :     0.001580  p :     0.007519
      px      :     0.002970
      py      :     0.002970
      dz2     :     0.012805  d :     0.013545
      dxz     :     0.000258
      dyz     :     0.000258
      dx2y2   :     0.000112
      dxy     :     0.000112
      f0      :    -0.000000  f :     0.000000
      f+1     :    -0.000000
      f-1     :    -0.000000
      f+2     :     0.000000
      f-2     :     0.000000
      f+3     :    -0.000000
      f-3     :    -0.000000
      g0      :     0.000000  g :     0.000000
      g+1     :     0.000000
      g-1     :     0.000000
      g+2     :    -0.000000
      g-2     :    -0.000000
      g+3     :    -0.000000
      g-3     :    -0.000000
      g+4     :     0.000000
      g-4     :     0.000000
  2 Cus       :     0.542054  s :     0.542054
      pz      :     0.001573  p :     0.007512
      px      :     0.002970
      py      :     0.002970
      dz2     :     0.012805  d :     0.013545
      dxz     :     0.000258
      dyz     :     0.000258
      dx2y2   :     0.000112
      dxy     :     0.000112
      f0      :    -0.000000  f :     0.000000
      f+1     :    -0.000000
      f-1     :    -0.000000
      f+2     :     0.000000
      f-2     :     0.000000
      f+3     :    -0.000000
      f-3     :    -0.000000
      g0      :     0.000000  g :     0.000000
      g+1     :     0.000000
      g-1     :     0.000000
      g+2     :    -0.000000
      g-2     :    -0.000000
      g+3     :    -0.000000
      g-3     :    -0.000000
      g+4     :     0.000000
      g-4     :     0.000000


                     *******************************
                     * LOEWDIN POPULATION ANALYSIS *
                     *******************************

-------------------------------------------
LOEWDIN ATOMIC CHARGES AND SPIN POPULATIONS
-------------------------------------------
   0 Cu:   -0.253856    0.349912
   1 Cu:    0.126927    0.325044
   2 Cu:    0.126929    0.325044

----------------------------------------------------
LOEWDIN REDUCED ORBITAL CHARGES AND SPIN POPULATIONS
----------------------------------------------------
CHARGE
  0 Cus       :     6.735453  s :     6.735453
      pz      :     4.459229  p :    12.507382
      px      :     4.024077
      py      :     4.024077
      dz2     :     2.077990  d :    10.010227
      dxz     :     1.966401
      dyz     :     1.966401
      dx2y2   :     1.999718
      dxy     :     1.999718
      f0      :     0.000433  f :     0.000792
      f+1     :     0.000166
      f-1     :     0.000166
      f+2     :     0.000013
      f-2     :     0.000013
      f+3     :     0.000000
      f-3     :     0.000000
      g0      :     0.000001  g :     0.000002
      g+1     :     0.000001
      g-1     :     0.000001
      g+2     :     0.000000
      g-2     :     0.000000
      g+3     :     0.000000
      g-3     :     0.000000
      g+4     :     0.000000
      g-4     :     0.000000
  1 Cus       :     6.740085  s :     6.740085
      pz      :     4.129555  p :    12.166128
      px      :     4.018287
      py      :     4.018287
      dz2     :     1.993657  d :     9.966490
      dxz     :     1.986295
      dyz     :     1.986295
      dx2y2   :     2.000121
      dxy     :     2.000121
      f0      :     0.000151  f :     0.000368
      f+1     :     0.000095
      f-1     :     0.000095
      f+2     :     0.000013
      f-2     :     0.000013
      f+3     :     0.000000
      f-3     :     0.000000
      g0      :     0.000000  g :     0.000001
      g+1     :     0.000000
      g-1     :     0.000000
      g+2     :     0.000000
      g-2     :     0.000000
      g+3     :     0.000000
      g-3     :     0.000000
      g+4     :     0.000000
      g-4     :     0.000000
  2 Cus       :     6.740084  s :     6.740084
      pz      :     4.129555  p :    12.166128
      px      :     4.018287
      py      :     4.018287
      dz2     :     1.993656  d :     9.966489
      dxz     :     1.986295
      dyz     :     1.986295
      dx2y2   :     2.000121
      dxy     :     2.000121
      f0      :     0.000151  f :     0.000368
      f+1     :     0.000095
      f-1     :     0.000095
      f+2     :     0.000013
      f-2     :     0.000013
      f+3     :     0.000000
      f-3     :     0.000000
      g0      :     0.000000  g :     0.000001
      g+1     :     0.000000
      g-1     :     0.000000
      g+2     :     0.000000
      g-2     :     0.000000
      g+3     :     0.000000
      g-3     :     0.000000
      g+4     :     0.000000
      g-4     :     0.000000

SPIN
  0 Cus       :    -0.022415  s :    -0.022415
      pz      :     0.367435  p :     0.368516
      px      :     0.000541
      py      :     0.000541
      dz2     :     0.012159  d :     0.003740
      dxz     :    -0.004299
      dyz     :    -0.004300
      dx2y2   :     0.000090
      dxy     :     0.000090
      f0      :     0.000056  f :     0.000070
      f+1     :     0.000006
      f-1     :     0.000006
      f+2     :     0.000001
      f-2     :     0.000001
      f+3     :    -0.000000
      f-3     :    -0.000000
      g0      :     0.000000  g :     0.000000
      g+1     :     0.000000
      g-1     :     0.000000
      g+2     :    -0.000000
      g-2     :    -0.000000
      g+3     :    -0.000000
      g-3     :    -0.000000
      g+4     :    -0.000000
      g-4     :    -0.000000
  1 Cus       :     0.300418  s :     0.300418
      pz      :     0.001723  p :     0.006554
      px      :     0.002416
      py      :     0.002416
      dz2     :     0.019246  d :     0.018077
      dxz     :    -0.000539
      dyz     :    -0.000539
      dx2y2   :    -0.000046
      dxy     :    -0.000046
      f0      :    -0.000005  f :    -0.000005
      f+1     :    -0.000000
      f-1     :    -0.000000
      f+2     :     0.000000
      f-2     :     0.000000
      f+3     :    -0.000000
      f-3     :    -0.000000
      g0      :     0.000000  g :     0.000000
      g+1     :     0.000000
      g-1     :     0.000000
      g+2     :    -0.000000
      g-2     :    -0.000000
      g+3     :    -0.000000
      g-3     :    -0.000000
      g+4     :     0.000000
      g-4     :     0.000000
  2 Cus       :     0.300418  s :     0.300418
      pz      :     0.001723  p :     0.006554
      px      :     0.002416
      py      :     0.002416
      dz2     :     0.019246  d :     0.018077
      dxz     :    -0.000539
      dyz     :    -0.000539
      dx2y2   :    -0.000046
      dxy     :    -0.000046
      f0      :    -0.000005  f :    -0.000005
      f+1     :    -0.000000
      f-1     :    -0.000000
      f+2     :     0.000000
      f-2     :     0.000000
      f+3     :    -0.000000
      f-3     :    -0.000000
      g0      :     0.000000  g :     0.000000
      g+1     :     0.000000
      g-1     :     0.000000
      g+2     :    -0.000000
      g-2     :    -0.000000
      g+3     :    -0.000000
      g-3     :    -0.000000
      g+4     :     0.000000
      g-4     :     0.000000


                      *****************************
                      * MAYER POPULATION ANALYSIS *
                      *****************************

  NA   - Mulliken gross atomic population
  ZA   - Total nuclear charge
  QA   - Mulliken gross atomic charge
  VA   - Mayer's total valence
  BVA  - Mayer's bonded valence
  FA   - Mayer's free valence

  ATOM       NA         ZA         QA         VA         BVA        FA
  0 Cu    29.3365    29.0000    -0.3365     0.8681     0.8588     0.0093
  1 Cu    28.8318    29.0000     0.1682     1.0368     0.7215     0.3153
  2 Cu    28.8318    29.0000     0.1682     1.0368     0.7215     0.3153

  Mayer bond orders larger than 0.100000
B(  0-Cu,  1-Cu) :   0.4294 B(  0-Cu,  2-Cu) :   0.4294 B(  1-Cu,  2-Cu) :   0.2921 


-------
TIMINGS
-------

Total SCF time: 0 days 0 hours 0 min 2 sec 

Total time                  ....       2.902 sec
Sum of individual times     ....       2.730 sec  ( 94.1%)

Fock matrix formation       ....       2.109 sec  ( 72.7%)
  Split-RI-J                ....       1.241 sec  ( 58.8% of F)
  XC integration            ....       0.783 sec  ( 37.1% of F)
    Basis function eval.    ....       0.048 sec  (  6.1% of XC)
    Density eval.           ....       0.120 sec  ( 15.4% of XC)
    XC-Functional eval.     ....       0.036 sec  (  4.5% of XC)
    XC-Potential eval.      ....       0.282 sec  ( 36.0% of XC)
Diagonalization             ....       0.169 sec  (  5.8%)
Density matrix formation    ....       0.020 sec  (  0.7%)
Population analysis         ....       0.014 sec  (  0.5%)
Initial guess               ....       0.099 sec  (  3.4%)
Orbital Transformation      ....       0.000 sec  (  0.0%)
Orbital Orthonormalization  ....       0.000 sec  (  0.0%)
DIIS solution               ....       0.057 sec  (  2.0%)
Grid generation             ....       0.261 sec  (  9.0%)


-------------------------------------------------------------------------------
                          DFT DISPERSION CORRECTION                            
                                                                               
                              DFTD3 V3.1  Rev 1                                
                          USING Becke-Johnson damping                          
-------------------------------------------------------------------------------
The TPSS functional is recognized
Active option DFTDOPT                   ...         4   

molecular C6(AA) [au] = 1595.875645 


            DFT-D V3
 parameters
 s6 scaling factor         :     1.0000 
 a1 scaling factor         :     0.4535 
 s8 scaling factor         :     1.9435 
 a2 scaling factor         :     4.4752 
 ad hoc parameters k1-k3   :    16.0000     1.3333    -4.0000 

 Edisp/kcal,au: -2.173263655056  -0.003463315716 
 E6   /kcal   :  -0.683393662 
 E8   /kcal   :  -1.489869993 
 % E8         :  68.554498208 

-------------------------   ----------------
Dispersion correction           -0.003463316
-------------------------   ----------------


-------------------------   --------------------
FINAL SINGLE POINT ENERGY     -4921.675032979625
-------------------------   --------------------


                            ***************************************
                            *     ORCA property calculations      *
                            ***************************************

                                    ---------------------
                                    Active property flags
                                    ---------------------
   (+) Dipole Moment


------------------------------------------------------------------------------
                       ORCA ELECTRIC PROPERTIES CALCULATION
------------------------------------------------------------------------------

Dipole Moment Calculation                       ... on
Quadrupole Moment Calculation                   ... off
Polarizability Calculation                      ... off
GBWName                                         ... Cu03N0_LIN.gbw
Electron density file                           ... Cu03N0_LIN.scfp
The origin for moment calculation is the CENTER OF MASS  = ( 0.000000,  0.000000  0.000000)

-------------
DIPOLE MOMENT
-------------
                                X             Y             Z
Electronic contribution:      0.00000       0.00000      -0.00001
Nuclear contribution   :      0.00000       0.00000       0.00000
                        -----------------------------------------
Total Dipole Moment    :      0.00000       0.00000      -0.00001
                        -----------------------------------------
Magnitude (a.u.)       :      0.00001
Magnitude (Debye)      :      0.00002



--------------------
Rotational spectrum 
--------------------
 
Rotational constants in cm-1:     0.000000     0.025268     0.025268 
Rotational constants in MHz :     0.000000   757.502973   757.502973 

 Dipole components along the rotational axes: 
x,y,z [a.u.] :    -0.000010     0.000000     0.000000 
x,y,z [Debye]:    -0.000025     0.000000     0.000000 

 

Timings for individual modules:

Sum of individual times         ...        3.894 sec (=   0.065 min)
GTO integral calculation        ...        0.677 sec (=   0.011 min)  17.4 %
SCF iterations                  ...        3.217 sec (=   0.054 min)  82.6 %
                             ****ORCA TERMINATED NORMALLY****
TOTAL RUN TIME: 0 days 0 hours 0 minutes 4 seconds 370 msec
