
                                 *****************
                                 * O   R   C   A *
                                 *****************

           --- An Ab Initio, DFT and Semiempirical electronic structure package ---

                  #######################################################
                  #                        -***-                        #
                  #          Department of theory and spectroscopy      #
                  #               Directorship: Frank Neese             #
                  #        Max Planck Institute fuer Kohlenforschung    #
                  #                Kaiser Wilhelm Platz 1               #
                  #                 D-45470 Muelheim/Ruhr               #
                  #                      Germany                        #
                  #                                                     #
                  #                  All rights reserved                #
                  #                        -***-                        #
                  #######################################################


                         Program Version 4.2.0 -  RELEASE  -


 With contributions from (in alphabetic order):
   Daniel Aravena         : Magnetic Suceptibility
   Michael Atanasov       : Ab Initio Ligand Field Theory (pilot matlab implementation)
   Alexander A. Auer      : GIAO ZORA, VPT2
   Ute Becker             : Parallelization
   Giovanni Bistoni       : ED, misc. LED, open-shell LED, HFLED
   Martin Brehm           : Molecular dynamics
   Dmytro Bykov           : SCF Hessian
   Vijay G. Chilkuri      : MRCI spin determinant printing, contributions to CSF-ICE
   Dipayan Datta          : RHF DLPNO-CCSD density
   Achintya Kumar Dutta   : EOM-CC, STEOM-CC
   Dmitry Ganyushin       : Spin-Orbit,Spin-Spin,Magnetic field MRCI
   Miquel Garcia          : C-PCM Hessian, Gaussian charge scheme
   Yang Guo               : DLPNO-NEVPT2, CIM, IAO-localization
   Andreas Hansen         : Spin unrestricted coupled pair/coupled cluster methods
   Benjamin Helmich-Paris : CASSCF linear response (MC-RPA)
   Lee Huntington         : MR-EOM, pCC
   Robert Izsak           : Overlap fitted RIJCOSX, COSX-SCS-MP3, EOM
   Christian Kollmar      : KDIIS, OOCD, Brueckner-CCSD(T), CCSD density
   Simone Kossmann        : Meta GGA functionals, TD-DFT gradient, OOMP2, MP2 Hessian
   Martin Krupicka        : AUTO-CI
   Lucas Lang             : DCDCAS
   Dagmar Lenk            : GEPOL surface, SMD
   Dimitrios Liakos       : Extrapolation schemes; Compound Job, initial MDCI parallelization
   Dimitrios Manganas     : Further ROCIS development; embedding schemes
   Dimitrios Pantazis     : SARC Basis sets
   Taras Petrenko         : DFT Hessian,TD-DFT gradient, ASA, ECA, R-Raman, ABS, FL, XAS/XES, NRVS
   Peter Pinski           : DLPNO-MP2, DLPNO-MP2 Gradient
   Christoph Reimann      : Effective Core Potentials
   Marius Retegan         : Local ZFS, SOC
   Christoph Riplinger    : Optimizer, TS searches, QM/MM, DLPNO-CCSD(T), (RO)-DLPNO pert. Triples
   Tobias Risthaus        : Range-separated hybrids, TD-DFT gradient, RPA, STAB
   Michael Roemelt        : Original ROCIS implementation
   Masaaki Saitow         : Open-shell DLPNO-CCSD energy and density
   Barbara Sandhoefer     : DKH picture change effects
   Avijit Sen             : IP-ROCIS
   Kantharuban Sivalingam : CASSCF convergence, NEVPT2, FIC-MRCI
   Bernardo de Souza      : ESD, SOC TD-DFT
   Georgi Stoychev        : AutoAux, RI-MP2 NMR
   Willem Van den Heuvel  : Paramagnetic NMR
   Boris Wezisla          : Elementary symmetry handling
   Frank Wennmohs         : Technical directorship


 We gratefully acknowledge several colleagues who have allowed us to
 interface, adapt or use parts of their codes:
   Stefan Grimme, W. Hujo, H. Kruse,             : VdW corrections, initial TS optimization,
                  C. Bannwarth                     DFT functionals, gCP, sTDA/sTD-DF
   Ed Valeev, F. Pavosevic, A. Kumar             : LibInt (2-el integral package), F12 methods
   Garnet Chan, S. Sharma, J. Yang, R. Olivares  : DMRG
   Ulf Ekstrom                                   : XCFun DFT Library
   Mihaly Kallay                                 : mrcc  (arbitrary order and MRCC methods)
   Andreas Klamt, Michael Diedenhofen            : otool_cosmo (COSMO solvation model)
   Jiri Pittner, Ondrej Demel                    : Mk-CCSD
   Frank Weinhold                                : gennbo (NPA and NBO analysis)
   Christopher J. Cramer and Donald G. Truhlar   : smd solvation model
   Lars Goerigk                                  : TD-DFT with DH, B97 family of functionals
   V. Asgeirsson, H. Jonsson                     : NEB implementation
   FAccTs GmbH                                   : IRC, NEB, NEB-TS, Multilevel, MM, QM/MM, CI optimization
   S Lehtola, MJT Oliveira, MAL Marques          : LibXC Library


 Your calculation uses the libint2 library for the computation of 2-el integrals
 For citations please refer to: http://libint.valeyev.net

 Your ORCA version has been built with support for libXC version: 4.2.3
 For citations please refer to: https://tddft.org/programs/libxc/

 This ORCA versions uses:
   CBLAS   interface :  Fast vector & matrix operations
   LAPACKE interface :  Fast linear algebra routines
   SCALAPACK package :  Parallel linear algebra routines


Your calculation utilizes the atom-pairwise dispersion correction
with the Becke-Johnson damping scheme (D3BJ)
Cite in your paper:
S.Grimme, S.Ehrlich, L.Goerigk, J Comput Chem, (2011), 32, 1456–1465 
S.Grimme, J.Antony, S.Ehrlich and H.Krieg, J.Chem.Phys., 132, (2010), 154104 
   

----- Orbital basis set information -----
Your calculation utilizes the basis: def2-TZVPPD
   F. Weigend and R. Ahlrichs, Phys. Chem. Chem. Phys. 7, 3297 (2005).
   D. Rappoport and F. Furche, J. Chem. Phys. 133 134105 (2010).

----- AuxJ basis set information -----
Your calculation utilizes the auxiliary basis: def2/J
   F. Weigend, Phys. Chem. Chem. Phys. 8, 1057 (2006).

================================================================================
                                        WARNINGS
                       Please study these warnings very carefully!
================================================================================


WARNING: your system is open-shell and RHF/RKS was chosen
  ===> : WILL SWITCH to UHF/UKS


INFO   : the flag for use of LIBINT has been found!

================================================================================
                                       INPUT FILE
================================================================================
NAME = Cu03N0_D3H.in
|  1> #
|  2> # Cu03N0_D3H TPSS-D3BJ/Def2-TZVPPD
|  3> #
|  4> ! tpss d3bj def2-tzvppd def2/j grid4 nofinalgrid
|  5> 
|  6> *xyz 0 2
|  7> Cu       0.000000    1.346828   -0.000000 
|  8> Cu       1.166387   -0.673414   -0.000000 
|  9> Cu      -1.166387   -0.673414   -0.000000 
| 10> *
| 11> 
| 12> %maxcore 5000
| 13> 
| 14> %pal
| 15> nprocs = 24
| 16> end
| 17> 
| 18> 
| 19>                          ****END OF INPUT****
================================================================================

                       ****************************
                       * Single Point Calculation *
                       ****************************

---------------------------------
CARTESIAN COORDINATES (ANGSTROEM)
---------------------------------
  Cu     0.000000    1.346828   -0.000000
  Cu     1.166387   -0.673414   -0.000000
  Cu    -1.166387   -0.673414   -0.000000

----------------------------
CARTESIAN COORDINATES (A.U.)
----------------------------
  NO LB      ZA    FRAG     MASS         X           Y           Z
   0 Cu   29.0000    0    63.550    0.000000    2.545136   -0.000000
   1 Cu   29.0000    0    63.550    2.204152   -1.272568   -0.000000
   2 Cu   29.0000    0    63.550   -2.204152   -1.272568   -0.000000

--------------------------------
INTERNAL COORDINATES (ANGSTROEM)
--------------------------------
 Cu     0   0   0     0.000000000000     0.00000000     0.00000000
 Cu     1   0   0     2.332774393792     0.00000000     0.00000000
 Cu     2   1   0     2.332774000000    60.00000558     0.00000000

---------------------------
INTERNAL COORDINATES (A.U.)
---------------------------
 Cu     0   0   0     0.000000000000     0.00000000     0.00000000
 Cu     1   0   0     4.408304736492     0.00000000     0.00000000
 Cu     2   1   0     4.408303992332    60.00000558     0.00000000

---------------------
BASIS SET INFORMATION
---------------------
There are 1 groups of distinct atoms

 Group   1 Type Cu  : 17s13p7d2f1g contracted to 6s6p4d2f1g pattern {842111/631111/4111/11/1}

Atom   0Cu   basis set group =>   1
Atom   1Cu   basis set group =>   1
Atom   2Cu   basis set group =>   1
---------------------------------
AUXILIARY/J BASIS SET INFORMATION
---------------------------------
There are 1 groups of distinct atoms

 Group   1 Type Cu  : 19s5p5d3f3g contracted to 8s5p4d3f3g pattern {121111111/11111/2111/111/111}

Atom   0Cu   basis set group =>   1
Atom   1Cu   basis set group =>   1
Atom   2Cu   basis set group =>   1


           ************************************************************
           *        Program running with 24 parallel MPI-processes    *
           *              working on a common directory               *
           ************************************************************
------------------------------------------------------------------------------
                           ORCA GTO INTEGRAL CALCULATION
                           -- RI-GTO INTEGRALS CHOSEN --
------------------------------------------------------------------------------

                         BASIS SET STATISTICS AND STARTUP INFO

Gaussian basis set:
 # of primitive gaussian shells          ...  120
 # of primitive gaussian functions       ...  342
 # of contracted shells                  ...   57
 # of contracted basis functions         ...  201
 Highest angular momentum                ...    4
 Maximum contraction depth               ...    8
Auxiliary gaussian basis set:
 # of primitive gaussian shells          ...  105
 # of primitive gaussian functions       ...  321
 # of contracted shells                  ...   69
 # of contracted aux-basis functions     ...  273
 Highest angular momentum                ...    4
 Maximum contraction depth               ...   12
Ratio of auxiliary to basis functions    ...  1.36
Integral package used                  ... LIBINT
 One Electron integrals                  ... done
 Ordering auxiliary basis shells         ... done
 Integral threshhold             Thresh  ...  1.000e-10
 Primitive cut-off               TCut    ...  1.000e-11
 Pre-screening matrix                    ... done
 Shell pair data                         ... 
 Ordering of the shell pairs             ... done (   0.000 sec) 1533 of 1653 pairs
 Determination of significant pairs      ... done (   0.000 sec)
 Creation of shell pair data             ... done (   0.000 sec)
 Storage of shell pair data              ... done (   0.030 sec)
 Shell pair data done in (   0.030 sec)
 Computing two index integrals           ... done
 Cholesky decomposition of the V-matrix  ... done


Timings:
 Total evaluation time                   ...   0.271 sec (  0.005 min)
 One electron matrix time                ...   0.031 sec (  0.001 min) = 11.4%
 Schwartz matrix evaluation time         ...   0.179 sec (  0.003 min) = 65.9%
 Two index repulsion integral time       ...   0.001 sec (  0.000 min) =  0.4%
 Cholesky decomposition of V             ...   0.002 sec (  0.000 min) =  0.6%
 Three index repulsion integral time     ...   0.000 sec (  0.000 min) =  0.0%



           ************************************************************
           *        Program running with 24 parallel MPI-processes    *
           *              working on a common directory               *
           ************************************************************
-------------------------------------------------------------------------------
                                 ORCA SCF
-------------------------------------------------------------------------------

------------
SCF SETTINGS
------------
Hamiltonian:
 Density Functional     Method          .... DFT(GTOs)
 Exchange Functional    Exchange        .... TPSS
 Correlation Functional Correlation     .... TPSS
 LDA part of GGA corr.  LDAOpt          .... PW91-LDA
 Gradients option       PostSCFGGA      .... off
   Density functional embedding theory  .... OFF
   NL short-range parameter             ....  5.000000
 RI-approximation to the Coulomb term is turned on
   Number of auxiliary basis functions  .... 273


General Settings:
 Integral files         IntName         .... Cu03N0_D3H
 Hartree-Fock type      HFTyp           .... UHF
 Total Charge           Charge          ....    0
 Multiplicity           Mult            ....    2
 Number of Electrons    NEL             ....   87
 Basis Dimension        Dim             ....  201
 Nuclear Repulsion      ENuc            ....    572.3288866767 Eh

Convergence Acceleration:
 DIIS                   CNVDIIS         .... on
   Start iteration      DIISMaxIt       ....    12
   Startup error        DIISStart       ....  0.200000
   # of expansion vecs  DIISMaxEq       ....     5
   Bias factor          DIISBfac        ....   1.050
   Max. coefficient     DIISMaxC        ....  10.000
 Newton-Raphson         CNVNR           .... off
 SOSCF                  CNVSOSCF        .... off
 Level Shifting         CNVShift        .... on
   Level shift para.    LevelShift      ....    0.2500
   Turn off err/grad.   ShiftErr        ....    0.0010
 Zerner damping         CNVZerner       .... off
 Static damping         CNVDamp         .... on
   Fraction old density DampFac         ....    0.7000
   Max. Damping (<1)    DampMax         ....    0.9800
   Min. Damping (>=0)   DampMin         ....    0.0000
   Turn off err/grad.   DampErr         ....    0.1000
 Fernandez-Rico         CNVRico         .... off

SCF Procedure:
 Maximum # iterations   MaxIter         ....   125
 SCF integral mode      SCFMode         .... Direct
   Integral package                     .... LIBINT
 Reset frequency        DirectResetFreq ....    20
 Integral Threshold     Thresh          ....  1.000e-10 Eh
 Primitive CutOff       TCut            ....  1.000e-11 Eh

Convergence Tolerance:
 Convergence Check Mode ConvCheckMode   .... Total+1el-Energy
 Convergence forced     ConvForced      .... 0
 Energy Change          TolE            ....  1.000e-06 Eh
 1-El. energy change                    ....  1.000e-03 Eh
 DIIS Error             TolErr          ....  1.000e-06


Diagonalization of the overlap matrix:
Smallest eigenvalue                        ... 7.631e-04
Time for diagonalization                   ...    0.009 sec
Threshold for overlap eigenvalues          ... 1.000e-08
Number of eigenvalues below threshold      ... 0
Time for construction of square roots      ...    0.005 sec
Total time needed                          ...    0.014 sec

-------------------
DFT GRID GENERATION
-------------------

General Integration Accuracy     IntAcc      ...  4.670
Radial Grid Type                 RadialGrid  ... Gauss-Chebyshev
Angular Grid (max. acc.)         AngularGrid ... Lebedev-302
Angular grid pruning method      GridPruning ... 3 (G Style)
Weight generation scheme         WeightScheme... Becke
Basis function cutoff            BFCut       ...    1.0000e-10
Integration weight cutoff        WCut        ...    1.0000e-14
Grids for H and He will be reduced by one unit

# of grid points (after initial pruning)     ...  28668 (   0.0 sec)
# of grid points (after weights+screening)   ...  28566 (   0.0 sec)
nearest neighbour list constructed           ...    0.0 sec
Grid point re-assignment to atoms done       ...    0.0 sec
Grid point division into batches done        ...    0.2 sec
Reduced shell lists constructed in    0.2 sec

Total number of grid points                  ...    28566
Total number of batches                      ...      448
Average number of points per batch           ...       63
Average number of grid points per atom       ...     9522
Average number of shells per batch           ...    12.75 (22.37%)
Average number of basis functions per batch  ...    35.15 (17.49%)
Average number of large shells per batch     ...     9.05 (70.98%)
Average number of large basis fcns per batch ...    24.35 (69.27%)
Maximum spatial batch extension              ...  20.08, 17.16, 22.17 au
Average spatial batch extension              ...   0.56,  0.48,  0.54 au

Time for grid setup =    0.263 sec

------------------------------
INITIAL GUESS: MODEL POTENTIAL
------------------------------
Loading Hartree-Fock densities                     ... done
Calculating cut-offs                               ... done
Setting up the integral package                    ... done
Initializing the effective Hamiltonian             ... done
Starting the Coulomb interaction                   ... done (   0.0 sec)
Reading the grid                                   ... done
Mapping shells                                     ... done
Starting the XC term evaluation                    ... done (   0.0 sec)
  promolecular density results
     # of electrons  =     87.000078989
     EX              =   -196.482367750
     EC              =     -4.058912258
     EX+EC           =   -200.541280008
Transforming the Hamiltonian                       ... done (   0.0 sec)
Diagonalizing the Hamiltonian                      ... done (   0.0 sec)
Back transforming the eigenvectors                 ... done (   0.0 sec)
Now organizing SCF variables                       ... done
                      ------------------
                      INITIAL GUESS DONE (   0.4 sec)
                      ------------------
--------------
SCF ITERATIONS
--------------
ITER       Energy         Delta-E        Max-DP      RMS-DP      [F,P]     Damp
               ***  Starting incremental Fock matrix formation  ***
  0  -4921.5415321481   0.000000000000 0.13247916  0.00104465  0.1858371 0.7000
  1  -4921.6016439679  -0.060111819776 0.07881115  0.00060752  0.0617405 0.7000
                               ***Turning on DIIS***
  2  -4921.6242612970  -0.022617329146 0.12437276  0.00129549  0.0479024 0.0000
  3  -4921.6640684925  -0.039807195451 0.03316594  0.00035130  0.0987307 0.0000
  4  -4921.6809727176  -0.016904225126 0.01564733  0.00014243  0.0148312 0.0000
  5  -4921.6818105695  -0.000837851897 0.00863045  0.00008136  0.0171511 0.0000
  6  -4921.6820836404  -0.000273070844 0.00352766  0.00004116  0.0054674 0.0000
  7  -4921.6821486833  -0.000065042951 0.00178153  0.00002076  0.0012706 0.0000
  8  -4921.6821622120  -0.000013528663 0.00241091  0.00004640  0.0003011 0.0000
  9  -4921.6821775950  -0.000015383011 0.00057289  0.00001166  0.0002079 0.0000
 10  -4921.6821789070  -0.000001312043 0.00037459  0.00000680  0.0001458 0.0000
 11  -4921.6821796730  -0.000000765967 0.00015218  0.00000149  0.0002365 0.0000
 12  -4921.6821796577   0.000000015270 0.00017747  0.00000385  0.0000478 0.0000
 13  -4921.6821802228  -0.000000565038 0.00005109  0.00000064  0.0000729 0.0000
                 **** Energy Check signals convergence ****

               *****************************************************
               *                     SUCCESS                       *
               *           SCF CONVERGED AFTER  14 CYCLES          *
               *****************************************************


----------------
TOTAL SCF ENERGY
----------------

Total Energy       :        -4921.68218016 Eh         -133925.78078 eV

Components:
Nuclear Repulsion  :          572.32888668 Eh           15573.86077 eV
Electronic Energy  :        -5494.01106683 Eh         -149499.64154 eV
One Electron Energy:        -8003.75433449 Eh         -217793.22784 eV
Two Electron Energy:         2509.74326766 Eh           68293.58629 eV

Virial components:
Potential Energy   :        -9835.22367962 Eh         -267630.04237 eV
Kinetic Energy     :         4913.54149946 Eh          133704.26159 eV
Virial Ratio       :            2.00165678


DFT components:
N(Alpha)           :       44.000001821434 electrons
N(Beta)            :       43.000001073390 electrons
N(Total)           :       87.000002894824 electrons
E(X)               :     -197.478222457810 Eh       
E(C)               :       -4.088084578341 Eh       
E(XC)              :     -201.566307036151 Eh       
DFET-embed. en.    :        0.000000000000 Eh       

---------------
SCF CONVERGENCE
---------------

  Last Energy change         ...    6.6878e-08  Tolerance :   1.0000e-06
  Last MAX-Density change    ...    6.4788e-05  Tolerance :   1.0000e-05
  Last RMS-Density change    ...    6.8329e-07  Tolerance :   1.0000e-06
  Last DIIS Error            ...    2.9827e-05  Tolerance :   1.0000e-06

             **** THE GBW FILE WAS UPDATED (Cu03N0_D3H.gbw) ****
             **** DENSITY FILE WAS UPDATED (Cu03N0_D3H.scfp) ****
             **** ENERGY FILE WAS UPDATED (Cu03N0_D3H.en.tmp) ****
----------------------
UHF SPIN CONTAMINATION
----------------------

Warning: in a DFT calculation there is little theoretical justification to 
         calculate <S**2> as in Hartree-Fock theory. We will do it anyways
         but you should keep in mind that the values have only limited relevance

Expectation value of <S**2>     :     0.765171
Ideal value S*(S+1) for S=0.5   :     0.750000
Deviation                       :     0.015171

             **** THE GBW FILE WAS UPDATED (Cu03N0_D3H.gbw) ****
             **** DENSITY FILE WAS UPDATED (Cu03N0_D3H.scfp) ****
----------------
ORBITAL ENERGIES
----------------
                 SPIN UP ORBITALS
  NO   OCC          E(Eh)            E(eV) 
   0   1.0000    -322.101499     -8764.8274 
   1   1.0000    -322.101487     -8764.8271 
   2   1.0000    -322.093605     -8764.6126 
   3   1.0000     -38.392916     -1044.7243 
   4   1.0000     -38.392880     -1044.7234 
   5   1.0000     -38.388397     -1044.6014 
   6   1.0000     -33.612130      -914.6326 
   7   1.0000     -33.612119      -914.6323 
   8   1.0000     -33.611763      -914.6226 
   9   1.0000     -33.611752      -914.6223 
  10   1.0000     -33.611604      -914.6182 
  11   1.0000     -33.611591      -914.6179 
  12   1.0000     -33.607590      -914.5090 
  13   1.0000     -33.607172      -914.4976 
  14   1.0000     -33.606694      -914.4846 
  15   1.0000      -4.151274      -112.9619 
  16   1.0000      -4.150934      -112.9526 
  17   1.0000      -4.144273      -112.7714 
  18   1.0000      -2.667422       -72.5842 
  19   1.0000      -2.664515       -72.5051 
  20   1.0000      -2.662796       -72.4584 
  21   1.0000      -2.661956       -72.4355 
  22   1.0000      -2.660102       -72.3851 
  23   1.0000      -2.659811       -72.3771 
  24   1.0000      -2.658124       -72.3312 
  25   1.0000      -2.656963       -72.2996 
  26   1.0000      -2.650535       -72.1247 
  27   1.0000      -0.279732        -7.6119 
  28   1.0000      -0.239682        -6.5221 
  29   1.0000      -0.237066        -6.4509 
  30   1.0000      -0.235592        -6.4108 
  31   1.0000      -0.231124        -6.2892 
  32   1.0000      -0.218292        -5.9400 
  33   1.0000      -0.215314        -5.8590 
  34   1.0000      -0.212714        -5.7882 
  35   1.0000      -0.202129        -5.5002 
  36   1.0000      -0.200549        -5.4572 
  37   1.0000      -0.198770        -5.4088 
  38   1.0000      -0.198020        -5.3884 
  39   1.0000      -0.194174        -5.2838 
  40   1.0000      -0.193456        -5.2642 
  41   1.0000      -0.192908        -5.2493 
  42   1.0000      -0.186184        -5.0663 
  43   1.0000      -0.130845        -3.5605 
  44   0.0000      -0.126499        -3.4422 
  45   0.0000      -0.063624        -1.7313 
  46   0.0000      -0.041883        -1.1397 
  47   0.0000      -0.021186        -0.5765 
  48   0.0000      -0.019126        -0.5204 
  49   0.0000       0.020160         0.5486 
  50   0.0000       0.021295         0.5795 
  51   0.0000       0.028316         0.7705 
  52   0.0000       0.030584         0.8322 
  53   0.0000       0.067192         1.8284 
  54   0.0000       0.080252         2.1838 
  55   0.0000       0.085561         2.3282 
  56   0.0000       0.096144         2.6162 
  57   0.0000       0.100377         2.7314 
  58   0.0000       0.102911         2.8003 
  59   0.0000       0.138216         3.7610 
  60   0.0000       0.141186         3.8419 
  61   0.0000       0.167158         4.5486 
  62   0.0000       0.173874         4.7313 
  63   0.0000       0.175409         4.7731 
  64   0.0000       0.185269         5.0414 
  65   0.0000       0.191046         5.1986 
  66   0.0000       0.192168         5.2292 
  67   0.0000       0.198974         5.4144 
  68   0.0000       0.201249         5.4763 
  69   0.0000       0.216477         5.8906 
  70   0.0000       0.264998         7.2110 
  71   0.0000       0.265433         7.2228 
  72   0.0000       0.288829         7.8594 
  73   0.0000       0.294236         8.0066 
  74   0.0000       0.313446         8.5293 
  75   0.0000       0.313491         8.5305 
  76   0.0000       0.321237         8.7413 
  77   0.0000       0.321897         8.7593 
  78   0.0000       0.415353        11.3023 
  79   0.0000       0.447373        12.1736 
  80   0.0000       0.448535        12.2053 
  81   0.0000       0.594229        16.1698 
  82   0.0000       0.599915        16.3245 
  83   0.0000       0.646919        17.6036 
  84   0.0000       0.647896        17.6302 
  85   0.0000       0.696997        18.9662 
  86   0.0000       0.701278        19.0827 
  87   0.0000       0.737832        20.0774 
  88   0.0000       0.745965        20.2988 
  89   0.0000       0.749318        20.3900 
  90   0.0000       0.762625        20.7521 
  91   0.0000       0.798046        21.7159 
  92   0.0000       0.798381        21.7251 
  93   0.0000       0.877210        23.8701 
  94   0.0000       0.882498        24.0140 
  95   0.0000       0.898963        24.4620 
  96   0.0000       0.899212        24.4688 
  97   0.0000       0.980856        26.6904 
  98   0.0000       0.992798        27.0154 
  99   0.0000       0.994427        27.0597 
 100   0.0000       1.037291        28.2261 
 101   0.0000       1.038575        28.2611 
 102   0.0000       1.207630        32.8613 
 103   0.0000       1.208068        32.8732 
 104   0.0000       1.232058        33.5260 
 105   0.0000       2.886235        78.5385 
 106   0.0000       2.930316        79.7380 
 107   0.0000       2.963895        80.6517 
 108   0.0000       2.966788        80.7304 
 109   0.0000       2.992342        81.4258 
 110   0.0000       3.000114        81.6373 
 111   0.0000       3.013849        82.0110 
 112   0.0000       3.014771        82.0361 
 113   0.0000       3.020753        82.1989 
 114   0.0000       3.137733        85.3821 
 115   0.0000       3.310438        90.0816 
 116   0.0000       3.323699        90.4425 
 117   0.0000       3.331593        90.6573 
 118   0.0000       3.334513        90.7367 
 119   0.0000       3.343020        90.9682 
 120   0.0000       3.344314        91.0034 
 121   0.0000       3.360565        91.4456 
 122   0.0000       3.361750        91.4779 
 123   0.0000       3.365320        91.5750 
 124   0.0000       3.366433        91.6053 
 125   0.0000       3.367513        91.6347 
 126   0.0000       3.370028        91.7031 
 127   0.0000       3.370435        91.7142 
 128   0.0000       3.372475        91.7697 
 129   0.0000       3.373959        91.8101 
 130   0.0000       3.375303        91.8467 
 131   0.0000       3.376172        91.8703 
 132   0.0000       3.378455        91.9324 
 133   0.0000       3.382383        92.0393 
 134   0.0000       3.404719        92.6471 
 135   0.0000       3.448341        93.8341 
 136   0.0000       3.495554        95.1189 
 137   0.0000       3.500825        95.2623 
 138   0.0000       3.594484        97.8109 
 139   0.0000       3.597817        97.9016 
 140   0.0000       3.598276        97.9141 
 141   0.0000       3.630665        98.7954 
 142   0.0000       3.647550        99.2549 
 143   0.0000       3.653638        99.4205 
 144   0.0000       3.671496        99.9065 
 145   0.0000       3.719372       101.2093 
 146   0.0000       3.726389       101.4002 
 147   0.0000       3.859009       105.0090 
 148   0.0000       3.860290       105.0438 
 149   0.0000       3.880301       105.5884 
 150   0.0000       3.920861       106.6920 
 151   0.0000       4.157074       113.1197 
 152   0.0000       4.159382       113.1825 
 153   0.0000      12.891514       350.7959 
 154   0.0000      12.891920       350.8070 
 155   0.0000      12.892893       350.8334 
 156   0.0000      12.892990       350.8361 
 157   0.0000      12.893025       350.8370 
 158   0.0000      12.893354       350.8460 
 159   0.0000      12.894211       350.8693 
 160   0.0000      12.894299       350.8717 
 161   0.0000      12.895388       350.9014 
 162   0.0000      12.895441       350.9028 
 163   0.0000      12.896092       350.9205 
 164   0.0000      12.896124       350.9214 
 165   0.0000      12.896205       350.9236 
 166   0.0000      12.896335       350.9271 
 167   0.0000      12.898635       350.9897 
 168   0.0000      12.898976       350.9990 
 169   0.0000      12.898983       350.9992 
 170   0.0000      12.899146       351.0036 
 171   0.0000      12.899163       351.0041 
 172   0.0000      12.899654       351.0174 
 173   0.0000      12.902109       351.0842 
 174   0.0000      12.903094       351.1110 
 175   0.0000      12.905647       351.1805 
 176   0.0000      12.905727       351.1827 
 177   0.0000      12.906891       351.2144 
 178   0.0000      12.908362       351.2544 
 179   0.0000      12.908406       351.2556 
 180   0.0000      12.979645       353.1941 
 181   0.0000      12.979785       353.1979 
 182   0.0000      12.979974       353.2031 
 183   0.0000      12.980733       353.2237 
 184   0.0000      12.980810       353.2258 
 185   0.0000      12.982050       353.2596 
 186   0.0000      12.983517       353.2994 
 187   0.0000      12.984172       353.3173 
 188   0.0000      12.984619       353.3295 
 189   0.0000      12.986912       353.3918 
 190   0.0000      12.989182       353.4536 
 191   0.0000      12.989868       353.4723 
 192   0.0000      12.991980       353.5298 
 193   0.0000      12.995519       353.6261 
 194   0.0000      12.996236       353.6456 
 195   0.0000      12.998608       353.7101 
 196   0.0000      13.001092       353.7777 
 197   0.0000      13.003525       353.8439 
 198   0.0000      13.078053       355.8719 
 199   0.0000      13.084349       356.0432 
 200   0.0000      13.084907       356.0584 

                 SPIN DOWN ORBITALS
  NO   OCC          E(Eh)            E(eV) 
   0   1.0000    -322.101331     -8764.8228 
   1   1.0000    -322.101319     -8764.8225 
   2   1.0000    -322.093095     -8764.5987 
   3   1.0000     -38.392959     -1044.7255 
   4   1.0000     -38.392923     -1044.7246 
   5   1.0000     -38.388491     -1044.6039 
   6   1.0000     -33.611930      -914.6271 
   7   1.0000     -33.611922      -914.6269 
   8   1.0000     -33.611919      -914.6268 
   9   1.0000     -33.611910      -914.6266 
  10   1.0000     -33.611576      -914.6175 
  11   1.0000     -33.611564      -914.6172 
  12   1.0000     -33.607258      -914.5000 
  13   1.0000     -33.607070      -914.4949 
  14   1.0000     -33.607053      -914.4944 
  15   1.0000      -4.151216      -112.9603 
  16   1.0000      -4.150875      -112.9511 
  17   1.0000      -4.144039      -112.7650 
  18   1.0000      -2.667129       -72.5763 
  19   1.0000      -2.664449       -72.5034 
  20   1.0000      -2.662507       -72.4505 
  21   1.0000      -2.661456       -72.4219 
  22   1.0000      -2.660227       -72.3885 
  23   1.0000      -2.659937       -72.3806 
  24   1.0000      -2.657834       -72.3233 
  25   1.0000      -2.655991       -72.2732 
  26   1.0000      -2.650430       -72.1219 
  27   1.0000      -0.275495        -7.4966 
  28   1.0000      -0.237211        -6.4548 
  29   1.0000      -0.234591        -6.3835 
  30   1.0000      -0.233122        -6.3436 
  31   1.0000      -0.225674        -6.1409 
  32   1.0000      -0.216634        -5.8949 
  33   1.0000      -0.213262        -5.8031 
  34   1.0000      -0.210005        -5.7145 
  35   1.0000      -0.201084        -5.4718 
  36   1.0000      -0.199662        -5.4331 
  37   1.0000      -0.198203        -5.3934 
  38   1.0000      -0.194534        -5.2935 
  39   1.0000      -0.190815        -5.1923 
  40   1.0000      -0.190109        -5.1731 
  41   1.0000      -0.189419        -5.1544 
  42   1.0000      -0.182026        -4.9532 
  43   0.0000      -0.118363        -3.2208 
  44   0.0000      -0.100601        -2.7375 
  45   0.0000      -0.055099        -1.4993 
  46   0.0000      -0.028965        -0.7882 
  47   0.0000      -0.004362        -0.1187 
  48   0.0000      -0.003104        -0.0845 
  49   0.0000       0.026299         0.7156 
  50   0.0000       0.035050         0.9538 
  51   0.0000       0.039337         1.0704 
  52   0.0000       0.045599         1.2408 
  53   0.0000       0.079651         2.1674 
  54   0.0000       0.093018         2.5312 
  55   0.0000       0.094799         2.5796 
  56   0.0000       0.101260         2.7554 
  57   0.0000       0.116930         3.1818 
  58   0.0000       0.118546         3.2258 
  59   0.0000       0.147928         4.0253 
  60   0.0000       0.158196         4.3047 
  61   0.0000       0.176835         4.8119 
  62   0.0000       0.179623         4.8878 
  63   0.0000       0.186891         5.0856 
  64   0.0000       0.197621         5.3775 
  65   0.0000       0.200718         5.4618 
  66   0.0000       0.201170         5.4741 
  67   0.0000       0.208434         5.6718 
  68   0.0000       0.213044         5.7972 
  69   0.0000       0.224734         6.1153 
  70   0.0000       0.274827         7.4784 
  71   0.0000       0.276530         7.5248 
  72   0.0000       0.297269         8.0891 
  73   0.0000       0.301780         8.2118 
  74   0.0000       0.322858         8.7854 
  75   0.0000       0.323899         8.8137 
  76   0.0000       0.325559         8.8589 
  77   0.0000       0.332024         9.0348 
  78   0.0000       0.426764        11.6128 
  79   0.0000       0.455099        12.3839 
  80   0.0000       0.459413        12.5013 
  81   0.0000       0.599204        16.3052 
  82   0.0000       0.602836        16.4040 
  83   0.0000       0.654821        17.8186 
  84   0.0000       0.655648        17.8411 
  85   0.0000       0.699667        19.0389 
  86   0.0000       0.710162        19.3245 
  87   0.0000       0.745944        20.2982 
  88   0.0000       0.751912        20.4606 
  89   0.0000       0.768127        20.9018 
  90   0.0000       0.771958        21.0060 
  91   0.0000       0.805192        21.9104 
  92   0.0000       0.809225        22.0201 
  93   0.0000       0.886419        24.1207 
  94   0.0000       0.891228        24.2515 
  95   0.0000       0.911397        24.8004 
  96   0.0000       0.912260        24.8239 
  97   0.0000       0.992255        27.0006 
  98   0.0000       1.004132        27.3238 
  99   0.0000       1.011344        27.5201 
 100   0.0000       1.044684        28.4273 
 101   0.0000       1.054539        28.6955 
 102   0.0000       1.214564        33.0500 
 103   0.0000       1.219795        33.1923 
 104   0.0000       1.248241        33.9664 
 105   0.0000       2.888669        78.6047 
 106   0.0000       2.932873        79.8075 
 107   0.0000       2.967255        80.7431 
 108   0.0000       2.971296        80.8531 
 109   0.0000       2.993828        81.4662 
 110   0.0000       3.004466        81.7557 
 111   0.0000       3.016271        82.0769 
 112   0.0000       3.019416        82.1625 
 113   0.0000       3.025636        82.3317 
 114   0.0000       3.141493        85.4844 
 115   0.0000       3.313647        90.1689 
 116   0.0000       3.325975        90.5044 
 117   0.0000       3.334267        90.7300 
 118   0.0000       3.336861        90.8006 
 119   0.0000       3.347020        91.0771 
 120   0.0000       3.348397        91.1145 
 121   0.0000       3.362497        91.4982 
 122   0.0000       3.363269        91.5192 
 123   0.0000       3.366345        91.6029 
 124   0.0000       3.367082        91.6230 
 125   0.0000       3.368350        91.6575 
 126   0.0000       3.369846        91.6982 
 127   0.0000       3.372140        91.7606 
 128   0.0000       3.375637        91.8558 
 129   0.0000       3.376095        91.8682 
 130   0.0000       3.377961        91.9190 
 131   0.0000       3.379159        91.9516 
 132   0.0000       3.380579        91.9902 
 133   0.0000       3.385643        92.1280 
 134   0.0000       3.408603        92.7528 
 135   0.0000       3.450843        93.9022 
 136   0.0000       3.497374        95.1684 
 137   0.0000       3.504432        95.3604 
 138   0.0000       3.595673        97.8432 
 139   0.0000       3.599506        97.9475 
 140   0.0000       3.600426        97.9726 
 141   0.0000       3.632101        98.8345 
 142   0.0000       3.649987        99.3212 
 143   0.0000       3.657462        99.5246 
 144   0.0000       3.674322        99.9834 
 145   0.0000       3.720973       101.2528 
 146   0.0000       3.731058       101.5272 
 147   0.0000       3.862851       105.1135 
 148   0.0000       3.864269       105.1521 
 149   0.0000       3.881833       105.6300 
 150   0.0000       3.925580       106.8205 
 151   0.0000       4.158337       113.1541 
 152   0.0000       4.162955       113.2798 
 153   0.0000      12.891747       350.8023 
 154   0.0000      12.892114       350.8123 
 155   0.0000      12.892637       350.8265 
 156   0.0000      12.892685       350.8278 
 157   0.0000      12.893191       350.8416 
 158   0.0000      12.893208       350.8420 
 159   0.0000      12.894129       350.8671 
 160   0.0000      12.894149       350.8676 
 161   0.0000      12.895078       350.8929 
 162   0.0000      12.895441       350.9028 
 163   0.0000      12.896313       350.9265 
 164   0.0000      12.896352       350.9276 
 165   0.0000      12.896506       350.9318 
 166   0.0000      12.896588       350.9340 
 167   0.0000      12.898678       350.9909 
 168   0.0000      12.898694       350.9913 
 169   0.0000      12.898841       350.9953 
 170   0.0000      12.898874       350.9962 
 171   0.0000      12.899076       351.0017 
 172   0.0000      12.900128       351.0303 
 173   0.0000      12.902088       351.0837 
 174   0.0000      12.903166       351.1130 
 175   0.0000      12.905297       351.1710 
 176   0.0000      12.905736       351.1829 
 177   0.0000      12.906625       351.2071 
 178   0.0000      12.907981       351.2440 
 179   0.0000      12.908112       351.2476 
 180   0.0000      12.979702       353.1957 
 181   0.0000      12.980172       353.2084 
 182   0.0000      12.980245       353.2104 
 183   0.0000      12.980881       353.2277 
 184   0.0000      12.980910       353.2285 
 185   0.0000      12.982385       353.2687 
 186   0.0000      12.983272       353.2928 
 187   0.0000      12.984433       353.3244 
 188   0.0000      12.984847       353.3356 
 189   0.0000      12.986603       353.3834 
 190   0.0000      12.989793       353.4702 
 191   0.0000      12.990729       353.4957 
 192   0.0000      12.992688       353.5490 
 193   0.0000      12.995306       353.6203 
 194   0.0000      12.996985       353.6659 
 195   0.0000      12.999328       353.7297 
 196   0.0000      13.001507       353.7890 
 197   0.0000      13.003495       353.8431 
 198   0.0000      13.078661       355.8885 
 199   0.0000      13.084653       356.0515 
 200   0.0000      13.085099       356.0637 

                    ********************************
                    * MULLIKEN POPULATION ANALYSIS *
                    ********************************

--------------------------------------------
MULLIKEN ATOMIC CHARGES AND SPIN POPULATIONS
--------------------------------------------
   0 Cu:   -0.066296    0.598904
   1 Cu:    0.033206    0.200524
   2 Cu:    0.033090    0.200572
Sum of atomic charges         :   -0.0000000
Sum of atomic spin populations:    1.0000000

-----------------------------------------------------
MULLIKEN REDUCED ORBITAL CHARGES AND SPIN POPULATIONS
-----------------------------------------------------
CHARGE
  0 Cus       :     7.151638  s :     7.151638
      pz      :     4.021566  p :    12.112387
      px      :     4.019423
      py      :     4.071397
      dz2     :     1.980075  d :     9.802039
      dxz     :     1.993147
      dyz     :     1.978334
      dx2y2   :     1.963840
      dxy     :     1.886644
      f0      :     0.000026  f :     0.000230
      f+1     :     0.000013
      f-1     :     0.000032
      f+2     :     0.000017
      f-2     :     0.000031
      f+3     :     0.000050
      f-3     :     0.000062
      g0      :     0.000000  g :     0.000001
      g+1     :     0.000000
      g-1     :     0.000000
      g+2     :     0.000000
      g-2     :     0.000000
      g+3     :     0.000000
      g-3     :     0.000000
      g+4     :     0.000000
      g-4     :     0.000000
  1 Cus       :     6.913538  s :     6.913538
      pz      :     4.024655  p :    12.183544
      px      :     4.027715
      py      :     4.131175
      dz2     :     1.984256  d :     9.869435
      dxz     :     1.986564
      dyz     :     1.992125
      dx2y2   :     1.942937
      dxy     :     1.963553
      f0      :     0.000029  f :     0.000276
      f+1     :     0.000034
      f-1     :     0.000018
      f+2     :     0.000035
      f-2     :     0.000029
      f+3     :     0.000060
      f-3     :     0.000070
      g0      :     0.000000  g :     0.000001
      g+1     :     0.000000
      g-1     :     0.000000
      g+2     :     0.000000
      g-2     :     0.000000
      g+3     :     0.000000
      g-3     :     0.000000
      g+4     :     0.000000
      g-4     :     0.000000
  2 Cus       :     6.913637  s :     6.913637
      pz      :     4.024656  p :    12.183552
      px      :     4.027719
      py      :     4.131177
      dz2     :     1.984257  d :     9.869444
      dxz     :     1.986566
      dyz     :     1.992125
      dx2y2   :     1.942941
      dxy     :     1.963556
      f0      :     0.000029  f :     0.000276
      f+1     :     0.000034
      f-1     :     0.000018
      f+2     :     0.000035
      f-2     :     0.000029
      f+3     :     0.000060
      f-3     :     0.000070
      g0      :     0.000000  g :     0.000001
      g+1     :     0.000000
      g-1     :     0.000000
      g+2     :     0.000000
      g-2     :     0.000000
      g+3     :     0.000000
      g-3     :     0.000000
      g+4     :     0.000000
      g-4     :     0.000000

SPIN
  0 Cus       :     0.536176  s :     0.536176
      pz      :     0.000087  p :     0.037864
      px      :     0.005083
      py      :     0.032694
      dz2     :    -0.000599  d :     0.024863
      dxz     :     0.000808
      dyz     :     0.002158
      dx2y2   :     0.001329
      dxy     :     0.021167
      f0      :     0.000000  f :     0.000001
      f+1     :    -0.000000
      f-1     :     0.000001
      f+2     :     0.000001
      f-2     :     0.000000
      f+3     :    -0.000001
      f-3     :     0.000000
      g0      :     0.000000  g :     0.000000
      g+1     :     0.000000
      g-1     :     0.000000
      g+2     :     0.000000
      g-2     :     0.000000
      g+3     :     0.000000
      g-3     :    -0.000000
      g+4     :     0.000000
      g-4     :     0.000000
  1 Cus       :     0.105888  s :     0.105888
      pz      :    -0.000516  p :     0.092366
      px      :     0.001141
      py      :     0.091741
      dz2     :     0.000407  d :     0.002269
      dxz     :    -0.000723
      dyz     :    -0.000288
      dx2y2   :    -0.001342
      dxy     :     0.004215
      f0      :     0.000000  f :     0.000002
      f+1     :    -0.000000
      f-1     :     0.000001
      f+2     :    -0.000000
      f-2     :     0.000001
      f+3     :     0.000002
      f-3     :    -0.000001
      g0      :     0.000000  g :     0.000000
      g+1     :     0.000000
      g-1     :     0.000000
      g+2     :     0.000000
      g-2     :     0.000000
      g+3     :     0.000000
      g-3     :    -0.000000
      g+4     :    -0.000000
      g-4     :     0.000000
  2 Cus       :     0.105943  s :     0.105943
      pz      :    -0.000516  p :     0.092362
      px      :     0.001138
      py      :     0.091740
      dz2     :     0.000407  d :     0.002265
      dxz     :    -0.000723
      dyz     :    -0.000288
      dx2y2   :    -0.001344
      dxy     :     0.004213
      f0      :     0.000000  f :     0.000002
      f+1     :    -0.000000
      f-1     :     0.000001
      f+2     :    -0.000000
      f-2     :     0.000001
      f+3     :     0.000002
      f-3     :    -0.000001
      g0      :     0.000000  g :     0.000000
      g+1     :     0.000000
      g-1     :     0.000000
      g+2     :     0.000000
      g-2     :     0.000000
      g+3     :     0.000000
      g-3     :    -0.000000
      g+4     :    -0.000000
      g-4     :     0.000000


                     *******************************
                     * LOEWDIN POPULATION ANALYSIS *
                     *******************************

-------------------------------------------
LOEWDIN ATOMIC CHARGES AND SPIN POPULATIONS
-------------------------------------------
   0 Cu:   -0.018964    0.418037
   1 Cu:    0.009501    0.290974
   2 Cu:    0.009463    0.290990

----------------------------------------------------
LOEWDIN REDUCED ORBITAL CHARGES AND SPIN POPULATIONS
----------------------------------------------------
CHARGE
  0 Cus       :     6.678739  s :     6.678739
      pz      :     4.022106  p :    12.431002
      px      :     4.048610
      py      :     4.360286
      dz2     :     2.015044  d :     9.908644
      dxz     :     1.993904
      dyz     :     1.977519
      dx2y2   :     1.990103
      dxy     :     1.932073
      f0      :     0.000053  f :     0.000577
      f+1     :     0.000036
      f-1     :     0.000087
      f+2     :     0.000029
      f-2     :     0.000068
      f+3     :     0.000183
      f-3     :     0.000121
      g0      :     0.000000  g :     0.000002
      g+1     :     0.000000
      g-1     :     0.000000
      g+2     :     0.000000
      g-2     :     0.000000
      g+3     :     0.000000
      g-3     :     0.000000
      g+4     :     0.000000
      g-4     :     0.000000
  1 Cus       :     6.564732  s :     6.564732
      pz      :     4.024831  p :    12.439768
      px      :     4.132403
      py      :     4.282534
      dz2     :     2.012187  d :     9.985341
      dxz     :     1.986204
      dyz     :     1.991948
      dx2y2   :     1.993557
      dxy     :     2.001445
      f0      :     0.000057  f :     0.000657
      f+1     :     0.000075
      f-1     :     0.000052
      f+2     :     0.000067
      f-2     :     0.000049
      f+3     :     0.000224
      f-3     :     0.000132
      g0      :     0.000000  g :     0.000002
      g+1     :     0.000000
      g-1     :     0.000000
      g+2     :     0.000000
      g-2     :     0.000000
      g+3     :     0.000000
      g-3     :     0.000000
      g+4     :     0.000000
      g-4     :     0.000000
  2 Cus       :     6.564760  s :     6.564760
      pz      :     4.024832  p :    12.439773
      px      :     4.132402
      py      :     4.282539
      dz2     :     2.012188  d :     9.985346
      dxz     :     1.986206
      dyz     :     1.991949
      dx2y2   :     1.993556
      dxy     :     2.001448
      f0      :     0.000057  f :     0.000657
      f+1     :     0.000075
      f-1     :     0.000052
      f+2     :     0.000067
      f-2     :     0.000049
      f+3     :     0.000224
      f-3     :     0.000132
      g0      :     0.000000  g :     0.000002
      g+1     :     0.000000
      g-1     :     0.000000
      g+2     :     0.000000
      g-2     :     0.000000
      g+3     :     0.000000
      g-3     :     0.000000
      g+4     :     0.000000
      g-4     :     0.000000

SPIN
  0 Cus       :     0.211869  s :     0.211869
      pz      :     0.000637  p :     0.174621
      px      :     0.001210
      py      :     0.172773
      dz2     :     0.003609  d :     0.031525
      dxz     :    -0.000212
      dyz     :     0.001517
      dx2y2   :     0.010033
      dxy     :     0.016579
      f0      :     0.000001  f :     0.000022
      f+1     :     0.000001
      f-1     :     0.000014
      f+2     :     0.000001
      f-2     :     0.000001
      f+3     :     0.000004
      f-3     :     0.000000
      g0      :     0.000000  g :     0.000000
      g+1     :     0.000000
      g-1     :     0.000000
      g+2     :     0.000000
      g-2     :     0.000000
      g+3     :     0.000000
      g-3     :     0.000000
      g+4     :     0.000000
      g-4     :     0.000000
  1 Cus       :     0.047814  s :     0.047814
      pz      :     0.000020  p :     0.204610
      px      :     0.000429
      py      :     0.204161
      dz2     :     0.002705  d :     0.038513
      dxz     :    -0.000867
      dyz     :    -0.000128
      dx2y2   :     0.016312
      dxy     :     0.020490
      f0      :     0.000001  f :     0.000037
      f+1     :    -0.000001
      f-1     :     0.000010
      f+2     :     0.000000
      f-2     :     0.000001
      f+3     :     0.000025
      f-3     :     0.000001
      g0      :     0.000000  g :     0.000000
      g+1     :     0.000000
      g-1     :     0.000000
      g+2     :     0.000000
      g-2     :     0.000000
      g+3     :     0.000000
      g-3     :    -0.000000
      g+4     :     0.000000
      g-4     :     0.000000
  2 Cus       :     0.047835  s :     0.047835
      pz      :     0.000020  p :     0.204613
      px      :     0.000429
      py      :     0.204164
      dz2     :     0.002705  d :     0.038505
      dxz     :    -0.000867
      dyz     :    -0.000128
      dx2y2   :     0.016306
      dxy     :     0.020488
      f0      :     0.000001  f :     0.000037
      f+1     :    -0.000001
      f-1     :     0.000010
      f+2     :     0.000000
      f-2     :     0.000001
      f+3     :     0.000025
      f-3     :     0.000001
      g0      :     0.000000  g :     0.000000
      g+1     :     0.000000
      g-1     :     0.000000
      g+2     :     0.000000
      g-2     :     0.000000
      g+3     :     0.000000
      g-3     :    -0.000000
      g+4     :     0.000000
      g-4     :     0.000000


                      *****************************
                      * MAYER POPULATION ANALYSIS *
                      *****************************

  NA   - Mulliken gross atomic population
  ZA   - Total nuclear charge
  QA   - Mulliken gross atomic charge
  VA   - Mayer's total valence
  BVA  - Mayer's bonded valence
  FA   - Mayer's free valence

  ATOM       NA         ZA         QA         VA         BVA        FA
  0 Cu    29.0663    29.0000    -0.0663     1.4126     1.0523     0.3603
  1 Cu    28.9668    29.0000     0.0332     1.4165     1.3328     0.0837
  2 Cu    28.9669    29.0000     0.0331     1.4165     1.3328     0.0837

  Mayer bond orders larger than 0.100000
B(  0-Cu,  1-Cu) :   0.5262 B(  0-Cu,  2-Cu) :   0.5262 B(  1-Cu,  2-Cu) :   0.8066 


-------
TIMINGS
-------

Total SCF time: 0 days 0 hours 0 min 3 sec 

Total time                  ....       3.036 sec
Sum of individual times     ....       2.873 sec  ( 94.6%)

Fock matrix formation       ....       2.238 sec  ( 73.7%)
  Split-RI-J                ....       1.225 sec  ( 54.8% of F)
  XC integration            ....       0.923 sec  ( 41.3% of F)
    Basis function eval.    ....       0.050 sec  (  5.4% of XC)
    Density eval.           ....       0.147 sec  ( 15.9% of XC)
    XC-Functional eval.     ....       0.037 sec  (  4.0% of XC)
    XC-Potential eval.      ....       0.313 sec  ( 33.9% of XC)
Diagonalization             ....       0.172 sec  (  5.7%)
Density matrix formation    ....       0.022 sec  (  0.7%)
Population analysis         ....       0.013 sec  (  0.4%)
Initial guess               ....       0.107 sec  (  3.5%)
Orbital Transformation      ....       0.000 sec  (  0.0%)
Orbital Orthonormalization  ....       0.000 sec  (  0.0%)
DIIS solution               ....       0.059 sec  (  1.9%)
Grid generation             ....       0.263 sec  (  8.7%)


-------------------------------------------------------------------------------
                          DFT DISPERSION CORRECTION                            
                                                                               
                              DFTD3 V3.1  Rev 1                                
                          USING Becke-Johnson damping                          
-------------------------------------------------------------------------------
The TPSS functional is recognized
Active option DFTDOPT                   ...         4   

molecular C6(AA) [au] = 1575.004599 


            DFT-D V3
 parameters
 s6 scaling factor         :     1.0000 
 a1 scaling factor         :     0.4535 
 s8 scaling factor         :     1.9435 
 a2 scaling factor         :     4.4752 
 ad hoc parameters k1-k3   :    16.0000     1.3333    -4.0000 

 Edisp/kcal,au: -2.588163157457  -0.004124500089 
 E6   /kcal   :  -0.810801340 
 E8   /kcal   :  -1.777361818 
 % E8         :  68.672711479 

-------------------------   ----------------
Dispersion correction           -0.004124500
-------------------------   ----------------


-------------------------   --------------------
FINAL SINGLE POINT ENERGY     -4921.686304655984
-------------------------   --------------------


                            ***************************************
                            *     ORCA property calculations      *
                            ***************************************

                                    ---------------------
                                    Active property flags
                                    ---------------------
   (+) Dipole Moment


------------------------------------------------------------------------------
                       ORCA ELECTRIC PROPERTIES CALCULATION
------------------------------------------------------------------------------

Dipole Moment Calculation                       ... on
Quadrupole Moment Calculation                   ... off
Polarizability Calculation                      ... off
GBWName                                         ... Cu03N0_D3H.gbw
Electron density file                           ... Cu03N0_D3H.scfp
The origin for moment calculation is the CENTER OF MASS  = ( 0.000000,  0.000000  0.000000)

-------------
DIPOLE MOMENT
-------------
                                X             Y             Z
Electronic contribution:      0.00017      -0.32296      -0.00000
Nuclear contribution   :      0.00000       0.00000      -0.00000
                        -----------------------------------------
Total Dipole Moment    :      0.00017      -0.32296      -0.00000
                        -----------------------------------------
Magnitude (a.u.)       :      0.32296
Magnitude (Debye)      :      0.82090



--------------------
Rotational spectrum 
--------------------
 
Rotational constants in cm-1:     0.097491     0.097491     0.048746 
Rotational constants in MHz :  2922.716641  2922.715325  1461.357991 

 Dipole components along the rotational axes: 
x,y,z [a.u.] :    -0.322959     0.000165    -0.000000 
x,y,z [Debye]:    -0.820897     0.000420    -0.000000 

 

Timings for individual modules:

Sum of individual times         ...        4.000 sec (=   0.067 min)
GTO integral calculation        ...        0.626 sec (=   0.010 min)  15.6 %
SCF iterations                  ...        3.374 sec (=   0.056 min)  84.4 %
                             ****ORCA TERMINATED NORMALLY****
TOTAL RUN TIME: 0 days 0 hours 0 minutes 4 seconds 507 msec
