
                                 *****************
                                 * O   R   C   A *
                                 *****************

           --- An Ab Initio, DFT and Semiempirical electronic structure package ---

                  #######################################################
                  #                        -***-                        #
                  #          Department of theory and spectroscopy      #
                  #               Directorship: Frank Neese             #
                  #        Max Planck Institute fuer Kohlenforschung    #
                  #                Kaiser Wilhelm Platz 1               #
                  #                 D-45470 Muelheim/Ruhr               #
                  #                      Germany                        #
                  #                                                     #
                  #                  All rights reserved                #
                  #                        -***-                        #
                  #######################################################


                         Program Version 4.2.0 -  RELEASE  -


 With contributions from (in alphabetic order):
   Daniel Aravena         : Magnetic Suceptibility
   Michael Atanasov       : Ab Initio Ligand Field Theory (pilot matlab implementation)
   Alexander A. Auer      : GIAO ZORA, VPT2
   Ute Becker             : Parallelization
   Giovanni Bistoni       : ED, misc. LED, open-shell LED, HFLED
   Martin Brehm           : Molecular dynamics
   Dmytro Bykov           : SCF Hessian
   Vijay G. Chilkuri      : MRCI spin determinant printing, contributions to CSF-ICE
   Dipayan Datta          : RHF DLPNO-CCSD density
   Achintya Kumar Dutta   : EOM-CC, STEOM-CC
   Dmitry Ganyushin       : Spin-Orbit,Spin-Spin,Magnetic field MRCI
   Miquel Garcia          : C-PCM Hessian, Gaussian charge scheme
   Yang Guo               : DLPNO-NEVPT2, CIM, IAO-localization
   Andreas Hansen         : Spin unrestricted coupled pair/coupled cluster methods
   Benjamin Helmich-Paris : CASSCF linear response (MC-RPA)
   Lee Huntington         : MR-EOM, pCC
   Robert Izsak           : Overlap fitted RIJCOSX, COSX-SCS-MP3, EOM
   Christian Kollmar      : KDIIS, OOCD, Brueckner-CCSD(T), CCSD density
   Simone Kossmann        : Meta GGA functionals, TD-DFT gradient, OOMP2, MP2 Hessian
   Martin Krupicka        : AUTO-CI
   Lucas Lang             : DCDCAS
   Dagmar Lenk            : GEPOL surface, SMD
   Dimitrios Liakos       : Extrapolation schemes; Compound Job, initial MDCI parallelization
   Dimitrios Manganas     : Further ROCIS development; embedding schemes
   Dimitrios Pantazis     : SARC Basis sets
   Taras Petrenko         : DFT Hessian,TD-DFT gradient, ASA, ECA, R-Raman, ABS, FL, XAS/XES, NRVS
   Peter Pinski           : DLPNO-MP2, DLPNO-MP2 Gradient
   Christoph Reimann      : Effective Core Potentials
   Marius Retegan         : Local ZFS, SOC
   Christoph Riplinger    : Optimizer, TS searches, QM/MM, DLPNO-CCSD(T), (RO)-DLPNO pert. Triples
   Tobias Risthaus        : Range-separated hybrids, TD-DFT gradient, RPA, STAB
   Michael Roemelt        : Original ROCIS implementation
   Masaaki Saitow         : Open-shell DLPNO-CCSD energy and density
   Barbara Sandhoefer     : DKH picture change effects
   Avijit Sen             : IP-ROCIS
   Kantharuban Sivalingam : CASSCF convergence, NEVPT2, FIC-MRCI
   Bernardo de Souza      : ESD, SOC TD-DFT
   Georgi Stoychev        : AutoAux, RI-MP2 NMR
   Willem Van den Heuvel  : Paramagnetic NMR
   Boris Wezisla          : Elementary symmetry handling
   Frank Wennmohs         : Technical directorship


 We gratefully acknowledge several colleagues who have allowed us to
 interface, adapt or use parts of their codes:
   Stefan Grimme, W. Hujo, H. Kruse,             : VdW corrections, initial TS optimization,
                  C. Bannwarth                     DFT functionals, gCP, sTDA/sTD-DF
   Ed Valeev, F. Pavosevic, A. Kumar             : LibInt (2-el integral package), F12 methods
   Garnet Chan, S. Sharma, J. Yang, R. Olivares  : DMRG
   Ulf Ekstrom                                   : XCFun DFT Library
   Mihaly Kallay                                 : mrcc  (arbitrary order and MRCC methods)
   Andreas Klamt, Michael Diedenhofen            : otool_cosmo (COSMO solvation model)
   Jiri Pittner, Ondrej Demel                    : Mk-CCSD
   Frank Weinhold                                : gennbo (NPA and NBO analysis)
   Christopher J. Cramer and Donald G. Truhlar   : smd solvation model
   Lars Goerigk                                  : TD-DFT with DH, B97 family of functionals
   V. Asgeirsson, H. Jonsson                     : NEB implementation
   FAccTs GmbH                                   : IRC, NEB, NEB-TS, Multilevel, MM, QM/MM, CI optimization
   S Lehtola, MJT Oliveira, MAL Marques          : LibXC Library


 Your calculation uses the libint2 library for the computation of 2-el integrals
 For citations please refer to: http://libint.valeyev.net

 Your ORCA version has been built with support for libXC version: 4.2.3
 For citations please refer to: https://tddft.org/programs/libxc/

 This ORCA versions uses:
   CBLAS   interface :  Fast vector & matrix operations
   LAPACKE interface :  Fast linear algebra routines
   SCALAPACK package :  Parallel linear algebra routines


Your calculation utilizes the atom-pairwise dispersion correction
with the Becke-Johnson damping scheme (D3BJ)
Cite in your paper:
S.Grimme, S.Ehrlich, L.Goerigk, J Comput Chem, (2011), 32, 1456–1465 
S.Grimme, J.Antony, S.Ehrlich and H.Krieg, J.Chem.Phys., 132, (2010), 154104 
   

----- Orbital basis set information -----
Your calculation utilizes the basis: def2-TZVPPD
   F. Weigend and R. Ahlrichs, Phys. Chem. Chem. Phys. 7, 3297 (2005).
   D. Rappoport and F. Furche, J. Chem. Phys. 133 134105 (2010).

----- AuxJ basis set information -----
Your calculation utilizes the auxiliary basis: def2/J
   F. Weigend, Phys. Chem. Chem. Phys. 8, 1057 (2006).

================================================================================
                                        WARNINGS
                       Please study these warnings very carefully!
================================================================================


WARNING: your system is open-shell and RHF/RKS was chosen
  ===> : WILL SWITCH to UHF/UKS


INFO   : the flag for use of LIBINT has been found!

================================================================================
                                       INPUT FILE
================================================================================
NAME = Cu04C2_H_F.in
|  1> #
|  2> # Cu04C2_H_F TPSS-D3BJ/Def2-TZVPPD
|  3> #
|  4> ! tpss d3bj def2-tzvppd def2/j grid4 nofinalgrid
|  5> 
|  6> *xyz 2 2
|  7> Cu      -0.000000    1.387730   -0.507533 
|  8> Cu       1.201809   -0.693865   -0.507533 
|  9> Cu      -1.201809   -0.693865   -0.507533 
| 10> Cu       0.000000    0.000000    1.576640 
| 11> H        0.000000    0.000000   -1.567185 
| 12> *
| 13> 
| 14> %maxcore 5000
| 15> 
| 16> %pal
| 17> nprocs = 24
| 18> end
| 19> 
| 20> 
| 21>                          ****END OF INPUT****
================================================================================

                       ****************************
                       * Single Point Calculation *
                       ****************************

---------------------------------
CARTESIAN COORDINATES (ANGSTROEM)
---------------------------------
  Cu    -0.000000    1.387730   -0.507533
  Cu     1.201809   -0.693865   -0.507533
  Cu    -1.201809   -0.693865   -0.507533
  Cu     0.000000    0.000000    1.576640
  H      0.000000    0.000000   -1.567185

----------------------------
CARTESIAN COORDINATES (A.U.)
----------------------------
  NO LB      ZA    FRAG     MASS         X           Y           Z
   0 Cu   29.0000    0    63.550   -0.000000    2.622430   -0.959098
   1 Cu   29.0000    0    63.550    2.271090   -1.311215   -0.959098
   2 Cu   29.0000    0    63.550   -2.271090   -1.311215   -0.959098
   3 Cu   29.0000    0    63.550    0.000000    0.000000    2.979418
   4 H     1.0000    0     1.008    0.000000    0.000000   -2.961550

--------------------------------
INTERNAL COORDINATES (ANGSTROEM)
--------------------------------
 Cu     0   0   0     0.000000000000     0.00000000     0.00000000
 Cu     1   0   0     2.403618650391     0.00000000     0.00000000
 Cu     2   1   0     2.403618000000    60.00000895     0.00000000
 Cu     2   1   3     2.503911061646    61.31637692   288.41368009
 H      2   1   3     1.746040054469    46.50387012    56.78304359

---------------------------
INTERNAL COORDINATES (A.U.)
---------------------------
 Cu     0   0   0     0.000000000000     0.00000000     0.00000000
 Cu     1   0   0     4.542180979624     0.00000000     0.00000000
 Cu     2   1   0     4.542179750564    60.00000895     0.00000000
 Cu     2   1   3     4.731706170208    61.31637692   288.41368009
 H      2   1   3     3.299537521803    46.50387012    56.78304359

---------------------
BASIS SET INFORMATION
---------------------
There are 2 groups of distinct atoms

 Group   1 Type Cu  : 17s13p7d2f1g contracted to 6s6p4d2f1g pattern {842111/631111/4111/11/1}
 Group   2 Type H   : 5s3p1d contracted to 3s3p1d pattern {311/111/1}

Atom   0Cu   basis set group =>   1
Atom   1Cu   basis set group =>   1
Atom   2Cu   basis set group =>   1
Atom   3Cu   basis set group =>   1
Atom   4H    basis set group =>   2
---------------------------------
AUXILIARY/J BASIS SET INFORMATION
---------------------------------
There are 2 groups of distinct atoms

 Group   1 Type Cu  : 19s5p5d3f3g contracted to 8s5p4d3f3g pattern {121111111/11111/2111/111/111}
 Group   2 Type H   : 5s2p1d contracted to 3s1p1d pattern {311/2/1}

Atom   0Cu   basis set group =>   1
Atom   1Cu   basis set group =>   1
Atom   2Cu   basis set group =>   1
Atom   3Cu   basis set group =>   1
Atom   4H    basis set group =>   2


           ************************************************************
           *        Program running with 24 parallel MPI-processes    *
           *              working on a common directory               *
           ************************************************************
------------------------------------------------------------------------------
                           ORCA GTO INTEGRAL CALCULATION
                           -- RI-GTO INTEGRALS CHOSEN --
------------------------------------------------------------------------------

                         BASIS SET STATISTICS AND STARTUP INFO

Gaussian basis set:
 # of primitive gaussian shells          ...  169
 # of primitive gaussian functions       ...  475
 # of contracted shells                  ...   83
 # of contracted basis functions         ...  285
 Highest angular momentum                ...    4
 Maximum contraction depth               ...    8
Auxiliary gaussian basis set:
 # of primitive gaussian shells          ...  148
 # of primitive gaussian functions       ...  444
 # of contracted shells                  ...   97
 # of contracted aux-basis functions     ...  375
 Highest angular momentum                ...    4
 Maximum contraction depth               ...   12
Ratio of auxiliary to basis functions    ...  1.32
Integral package used                  ... LIBINT
 One Electron integrals                  ... done
 Ordering auxiliary basis shells         ... done
 Integral threshhold             Thresh  ...  1.000e-10
 Primitive cut-off               TCut    ...  1.000e-11
 Pre-screening matrix                    ... done
 Shell pair data                         ... 
 Ordering of the shell pairs             ... done (   0.000 sec) 3203 of 3486 pairs
 Determination of significant pairs      ... done (   0.000 sec)
 Creation of shell pair data             ... done (   0.000 sec)
 Storage of shell pair data              ... done (   0.001 sec)
 Shell pair data done in (   0.001 sec)
 Computing two index integrals           ... done
 Cholesky decomposition of the V-matrix  ... done


Timings:
 Total evaluation time                   ...   0.343 sec (  0.006 min)
 One electron matrix time                ...   0.047 sec (  0.001 min) = 13.6%
 Schwartz matrix evaluation time         ...   0.267 sec (  0.004 min) = 77.8%
 Two index repulsion integral time       ...   0.002 sec (  0.000 min) =  0.7%
 Cholesky decomposition of V             ...   0.002 sec (  0.000 min) =  0.7%
 Three index repulsion integral time     ...   0.000 sec (  0.000 min) =  0.0%



           ************************************************************
           *        Program running with 24 parallel MPI-processes    *
           *              working on a common directory               *
           ************************************************************
-------------------------------------------------------------------------------
                                 ORCA SCF
-------------------------------------------------------------------------------

------------
SCF SETTINGS
------------
Hamiltonian:
 Density Functional     Method          .... DFT(GTOs)
 Exchange Functional    Exchange        .... TPSS
 Correlation Functional Correlation     .... TPSS
 LDA part of GGA corr.  LDAOpt          .... PW91-LDA
 Gradients option       PostSCFGGA      .... off
   Density functional embedding theory  .... OFF
   NL short-range parameter             ....  5.000000
 RI-approximation to the Coulomb term is turned on
   Number of auxiliary basis functions  .... 375


General Settings:
 Integral files         IntName         .... Cu04C2_H_F
 Hartree-Fock type      HFTyp           .... UHF
 Total Charge           Charge          ....    2
 Multiplicity           Mult            ....    2
 Number of Electrons    NEL             ....  115
 Basis Dimension        Dim             ....  285
 Nuclear Repulsion      ENuc            ....   1119.9202277639 Eh

Convergence Acceleration:
 DIIS                   CNVDIIS         .... on
   Start iteration      DIISMaxIt       ....    12
   Startup error        DIISStart       ....  0.200000
   # of expansion vecs  DIISMaxEq       ....     5
   Bias factor          DIISBfac        ....   1.050
   Max. coefficient     DIISMaxC        ....  10.000
 Newton-Raphson         CNVNR           .... off
 SOSCF                  CNVSOSCF        .... off
 Level Shifting         CNVShift        .... on
   Level shift para.    LevelShift      ....    0.2500
   Turn off err/grad.   ShiftErr        ....    0.0010
 Zerner damping         CNVZerner       .... off
 Static damping         CNVDamp         .... on
   Fraction old density DampFac         ....    0.7000
   Max. Damping (<1)    DampMax         ....    0.9800
   Min. Damping (>=0)   DampMin         ....    0.0000
   Turn off err/grad.   DampErr         ....    0.1000
 Fernandez-Rico         CNVRico         .... off

SCF Procedure:
 Maximum # iterations   MaxIter         ....   125
 SCF integral mode      SCFMode         .... Direct
   Integral package                     .... LIBINT
 Reset frequency        DirectResetFreq ....    20
 Integral Threshold     Thresh          ....  1.000e-10 Eh
 Primitive CutOff       TCut            ....  1.000e-11 Eh

Convergence Tolerance:
 Convergence Check Mode ConvCheckMode   .... Total+1el-Energy
 Convergence forced     ConvForced      .... 0
 Energy Change          TolE            ....  1.000e-06 Eh
 1-El. energy change                    ....  1.000e-03 Eh
 DIIS Error             TolErr          ....  1.000e-06


Diagonalization of the overlap matrix:
Smallest eigenvalue                        ... 6.380e-04
Time for diagonalization                   ...    0.012 sec
Threshold for overlap eigenvalues          ... 1.000e-08
Number of eigenvalues below threshold      ... 0
Time for construction of square roots      ...    0.010 sec
Total time needed                          ...    0.023 sec

-------------------
DFT GRID GENERATION
-------------------

General Integration Accuracy     IntAcc      ...  4.670
Radial Grid Type                 RadialGrid  ... Gauss-Chebyshev
Angular Grid (max. acc.)         AngularGrid ... Lebedev-302
Angular grid pruning method      GridPruning ... 3 (G Style)
Weight generation scheme         WeightScheme... Becke
Basis function cutoff            BFCut       ...    1.0000e-10
Integration weight cutoff        WCut        ...    1.0000e-14
Grids for H and He will be reduced by one unit

# of grid points (after initial pruning)     ...  41618 (   0.0 sec)
# of grid points (after weights+screening)   ...  40798 (   0.0 sec)
nearest neighbour list constructed           ...    0.0 sec
Grid point re-assignment to atoms done       ...    0.0 sec
Grid point division into batches done        ...    0.3 sec
Reduced shell lists constructed in    0.3 sec

Total number of grid points                  ...    40798
Total number of batches                      ...      640
Average number of points per batch           ...       63
Average number of grid points per atom       ...     8160
Average number of shells per batch           ...    23.54 (28.36%)
Average number of basis functions per batch  ...    65.96 (23.15%)
Average number of large shells per batch     ...    17.86 (75.87%)
Average number of large basis fcns per batch ...    49.07 (74.39%)
Maximum spatial batch extension              ...  20.21, 15.25, 22.17 au
Average spatial batch extension              ...   0.39,  0.33,  0.38 au

Time for grid setup =    0.324 sec

------------------------------
INITIAL GUESS: MODEL POTENTIAL
------------------------------
Loading Hartree-Fock densities                     ... done
Calculating cut-offs                               ... done
Setting up the integral package                    ... done
Initializing the effective Hamiltonian             ... done
Starting the Coulomb interaction                   ... done (   0.0 sec)
Reading the grid                                   ... done
Mapping shells                                     ... done
Starting the XC term evaluation                    ... done (   0.0 sec)
  promolecular density results
     # of electrons  =    116.999555128
     EX              =   -262.356282509
     EC              =     -5.468673781
     EX+EC           =   -267.824956290
Transforming the Hamiltonian                       ... done (   0.0 sec)
Diagonalizing the Hamiltonian                      ... done (   0.0 sec)
Back transforming the eigenvectors                 ... done (   0.0 sec)
Now organizing SCF variables                       ... done
                      ------------------
                      INITIAL GUESS DONE (   0.5 sec)
                      ------------------
--------------
SCF ITERATIONS
--------------
ITER       Energy         Delta-E        Max-DP      RMS-DP      [F,P]     Damp
               ***  Starting incremental Fock matrix formation  ***
  0  -6562.1653955879   0.000000000000 0.03014355  0.00030838  0.1113962 0.7000
  1  -6562.1821091463  -0.016713558331 0.01731404  0.00017735  0.0337563 0.7000
                               ***Turning on DIIS***
  2  -6562.1895522517  -0.007443105445 0.03497751  0.00035632  0.0271945 0.0000
  3  -6562.2009452730  -0.011393021255 0.00677089  0.00012243  0.0566112 0.0000
  4  -6562.2050307839  -0.004085510951 0.00450835  0.00005115  0.0102149 0.0000
  5  -6562.2053090476  -0.000278263715 0.00425889  0.00002473  0.0077761 0.0000
  6  -6562.2053838197  -0.000074772094 0.00170283  0.00001265  0.0017791 0.0000
  7  -6562.2053908464  -0.000007026710 0.00064429  0.00000722  0.0016271 0.0000
  8  -6562.2054006013  -0.000009754814 0.00236644  0.00001463  0.0001938 0.0000
  9  -6562.2054016866  -0.000001085317 0.00047365  0.00000298  0.0005456 0.0000
 10  -6562.2054023034  -0.000000616814 0.00012688  0.00000149  0.0001449 0.0000
 11  -6562.2054019552   0.000000348180 0.00014977  0.00000075  0.0000795 0.0000
                 **** Energy Check signals convergence ****

               *****************************************************
               *                     SUCCESS                       *
               *           SCF CONVERGED AFTER  12 CYCLES          *
               *****************************************************


----------------
TOTAL SCF ENERGY
----------------

Total Energy       :        -6562.20540225 Eh         -178566.68715 eV

Components:
Nuclear Repulsion  :         1119.92022776 Eh           30474.57870 eV
Electronic Energy  :        -7682.12563002 Eh         -209041.26585 eV
One Electron Energy:       -11336.48493931 Eh         -308481.43809 eV
Two Electron Energy:         3654.35930929 Eh           99440.17225 eV

Virial components:
Potential Energy   :       -13113.43687972 Eh         -356834.75863 eV
Kinetic Energy     :         6551.23147747 Eh          178268.07148 eV
Virial Ratio       :            2.00167509


DFT components:
N(Alpha)           :       57.999977964747 electrons
N(Beta)            :       56.999975749867 electrons
N(Total)           :      114.999953714614 electrons
E(X)               :     -263.299086039827 Eh       
E(C)               :       -5.453452154351 Eh       
E(XC)              :     -268.752538194177 Eh       
DFET-embed. en.    :        0.000000000000 Eh       

---------------
SCF CONVERGENCE
---------------

  Last Energy change         ...   -2.9681e-07  Tolerance :   1.0000e-06
  Last MAX-Density change    ...    1.7158e-05  Tolerance :   1.0000e-05
  Last RMS-Density change    ...    2.3613e-07  Tolerance :   1.0000e-06
  Last DIIS Error            ...    2.9372e-05  Tolerance :   1.0000e-06

             **** THE GBW FILE WAS UPDATED (Cu04C2_H_F.gbw) ****
             **** DENSITY FILE WAS UPDATED (Cu04C2_H_F.scfp) ****
             **** ENERGY FILE WAS UPDATED (Cu04C2_H_F.en.tmp) ****
----------------------
UHF SPIN CONTAMINATION
----------------------

Warning: in a DFT calculation there is little theoretical justification to 
         calculate <S**2> as in Hartree-Fock theory. We will do it anyways
         but you should keep in mind that the values have only limited relevance

Expectation value of <S**2>     :     0.753779
Ideal value S*(S+1) for S=0.5   :     0.750000
Deviation                       :     0.003779

             **** THE GBW FILE WAS UPDATED (Cu04C2_H_F.gbw) ****
             **** DENSITY FILE WAS UPDATED (Cu04C2_H_F.scfp) ****
----------------
ORBITAL ENERGIES
----------------
                 SPIN UP ORBITALS
  NO   OCC          E(Eh)            E(eV) 
   0   1.0000    -322.531222     -8776.5207 
   1   1.0000    -322.531203     -8776.5202 
   2   1.0000    -322.531198     -8776.5201 
   3   1.0000    -322.503103     -8775.7556 
   4   1.0000     -38.822563     -1056.4156 
   5   1.0000     -38.822548     -1056.4152 
   6   1.0000     -38.822514     -1056.4143 
   7   1.0000     -38.792656     -1055.6018 
   8   1.0000     -34.042124      -926.3333 
   9   1.0000     -34.042107      -926.3328 
  10   1.0000     -34.042101      -926.3326 
  11   1.0000     -34.041396      -926.3135 
  12   1.0000     -34.041377      -926.3130 
  13   1.0000     -34.041373      -926.3129 
  14   1.0000     -34.040602      -926.2919 
  15   1.0000     -34.040583      -926.2914 
  16   1.0000     -34.040577      -926.2912 
  17   1.0000     -34.011931      -925.5117 
  18   1.0000     -34.011614      -925.5031 
  19   1.0000     -34.011614      -925.5031 
  20   1.0000      -4.583113      -124.7129 
  21   1.0000      -4.582763      -124.7033 
  22   1.0000      -4.582753      -124.7030 
  23   1.0000      -4.550520      -123.8259 
  24   1.0000      -3.100529       -84.3697 
  25   1.0000      -3.098064       -84.3026 
  26   1.0000      -3.098053       -84.3023 
  27   1.0000      -3.093518       -84.1789 
  28   1.0000      -3.093106       -84.1677 
  29   1.0000      -3.093093       -84.1673 
  30   1.0000      -3.090979       -84.1098 
  31   1.0000      -3.090974       -84.1097 
  32   1.0000      -3.090012       -84.0835 
  33   1.0000      -3.064943       -83.4013 
  34   1.0000      -3.060547       -83.2817 
  35   1.0000      -3.060547       -83.2817 
  36   1.0000      -0.804284       -21.8857 
  37   1.0000      -0.701753       -19.0957 
  38   1.0000      -0.665917       -18.1205 
  39   1.0000      -0.665903       -18.1202 
  40   1.0000      -0.657752       -17.8983 
  41   1.0000      -0.653241       -17.7756 
  42   1.0000      -0.653230       -17.7753 
  43   1.0000      -0.647938       -17.6313 
  44   1.0000      -0.639927       -17.4133 
  45   1.0000      -0.639916       -17.4130 
  46   1.0000      -0.632356       -17.2073 
  47   1.0000      -0.632345       -17.2070 
  48   1.0000      -0.628176       -17.0936 
  49   1.0000      -0.628145       -17.0927 
  50   1.0000      -0.626379       -17.0446 
  51   1.0000      -0.615121       -16.7383 
  52   1.0000      -0.606621       -16.5070 
  53   1.0000      -0.605100       -16.4656 
  54   1.0000      -0.605091       -16.4654 
  55   1.0000      -0.602185       -16.3863 
  56   1.0000      -0.602161       -16.3856 
  57   1.0000      -0.558309       -15.1924 
  58   0.0000      -0.501616       -13.6497 
  59   0.0000      -0.501611       -13.6495 
  60   0.0000      -0.420560       -11.4440 
  61   0.0000      -0.384254       -10.4561 
  62   0.0000      -0.363651        -9.8954 
  63   0.0000      -0.363649        -9.8954 
  64   0.0000      -0.358935        -9.7671 
  65   0.0000      -0.358931        -9.7670 
  66   0.0000      -0.232344        -6.3224 
  67   0.0000      -0.220580        -6.0023 
  68   0.0000      -0.217515        -5.9189 
  69   0.0000      -0.217515        -5.9189 
  70   0.0000      -0.215480        -5.8635 
  71   0.0000      -0.215479        -5.8635 
  72   0.0000      -0.206019        -5.6061 
  73   0.0000      -0.177874        -4.8402 
  74   0.0000      -0.158690        -4.3182 
  75   0.0000      -0.155295        -4.2258 
  76   0.0000      -0.155295        -4.2258 
  77   0.0000      -0.151116        -4.1121 
  78   0.0000      -0.149687        -4.0732 
  79   0.0000      -0.149685        -4.0731 
  80   0.0000      -0.141950        -3.8627 
  81   0.0000      -0.141946        -3.8625 
  82   0.0000      -0.089206        -2.4274 
  83   0.0000      -0.084203        -2.2913 
  84   0.0000      -0.084201        -2.2912 
  85   0.0000      -0.079653        -2.1675 
  86   0.0000      -0.079649        -2.1674 
  87   0.0000      -0.073952        -2.0123 
  88   0.0000      -0.073545        -2.0013 
  89   0.0000      -0.054892        -1.4937 
  90   0.0000      -0.054891        -1.4936 
  91   0.0000      -0.049892        -1.3576 
  92   0.0000      -0.036349        -0.9891 
  93   0.0000      -0.036346        -0.9890 
  94   0.0000      -0.029275        -0.7966 
  95   0.0000      -0.029275        -0.7966 
  96   0.0000      -0.020720        -0.5638 
  97   0.0000      -0.006957        -0.1893 
  98   0.0000       0.005652         0.1538 
  99   0.0000       0.033605         0.9144 
 100   0.0000       0.033610         0.9146 
 101   0.0000       0.038214         1.0399 
 102   0.0000       0.038216         1.0399 
 103   0.0000       0.060712         1.6521 
 104   0.0000       0.090532         2.4635 
 105   0.0000       0.094539         2.5726 
 106   0.0000       0.094546         2.5727 
 107   0.0000       0.102773         2.7966 
 108   0.0000       0.102773         2.7966 
 109   0.0000       0.115023         3.1299 
 110   0.0000       0.120531         3.2798 
 111   0.0000       0.120535         3.2799 
 112   0.0000       0.248059         6.7500 
 113   0.0000       0.310063         8.4372 
 114   0.0000       0.320164         8.7121 
 115   0.0000       0.320174         8.7124 
 116   0.0000       0.340573         9.2675 
 117   0.0000       0.340578         9.2676 
 118   0.0000       0.345686         9.4066 
 119   0.0000       0.390327        10.6213 
 120   0.0000       0.390331        10.6214 
 121   0.0000       0.415581        11.3085 
 122   0.0000       0.421326        11.4649 
 123   0.0000       0.421330        11.4650 
 124   0.0000       0.458982        12.4895 
 125   0.0000       0.480811        13.0835 
 126   0.0000       0.480813        13.0836 
 127   0.0000       0.511300        13.9132 
 128   0.0000       0.515443        14.0259 
 129   0.0000       0.515460        14.0264 
 130   0.0000       0.525625        14.3030 
 131   0.0000       0.552035        15.0216 
 132   0.0000       0.552036        15.0217 
 133   0.0000       0.581662        15.8278 
 134   0.0000       0.589139        16.0313 
 135   0.0000       0.589141        16.0313 
 136   0.0000       0.623718        16.9722 
 137   0.0000       0.634613        17.2687 
 138   0.0000       0.634621        17.2689 
 139   0.0000       0.770076        20.9548 
 140   0.0000       0.773529        21.0488 
 141   0.0000       0.773537        21.0490 
 142   0.0000       0.793739        21.5987 
 143   0.0000       0.793759        21.5993 
 144   0.0000       0.827698        22.5228 
 145   0.0000       0.945546        25.7296 
 146   0.0000       0.945579        25.7305 
 147   0.0000       1.030830        28.0503 
 148   0.0000       2.277729        61.9802 
 149   0.0000       2.500007        68.0287 
 150   0.0000       2.500043        68.0296 
 151   0.0000       2.523311        68.6628 
 152   0.0000       2.531458        68.8845 
 153   0.0000       2.531475        68.8849 
 154   0.0000       2.558481        69.6198 
 155   0.0000       2.609946        71.0202 
 156   0.0000       2.609992        71.0215 
 157   0.0000       2.671436        72.6935 
 158   0.0000       2.678937        72.8976 
 159   0.0000       2.678943        72.8978 
 160   0.0000       2.683052        73.0096 
 161   0.0000       2.683074        73.0102 
 162   0.0000       2.729009        74.2601 
 163   0.0000       2.802494        76.2597 
 164   0.0000       2.804932        76.3261 
 165   0.0000       2.804948        76.3265 
 166   0.0000       2.874104        78.2084 
 167   0.0000       2.913565        79.2821 
 168   0.0000       2.919083        79.4323 
 169   0.0000       2.919101        79.4328 
 170   0.0000       2.937160        79.9242 
 171   0.0000       2.937435        79.9317 
 172   0.0000       2.937450        79.9321 
 173   0.0000       2.939481        79.9873 
 174   0.0000       2.939820        79.9966 
 175   0.0000       2.939854        79.9975 
 176   0.0000       2.941658        80.0466 
 177   0.0000       2.941672        80.0470 
 178   0.0000       2.953297        80.3633 
 179   0.0000       2.960673        80.5640 
 180   0.0000       2.960686        80.5644 
 181   0.0000       2.962995        80.6272 
 182   0.0000       2.982263        81.1515 
 183   0.0000       2.983342        81.1809 
 184   0.0000       2.983361        81.1814 
 185   0.0000       2.984656        81.2166 
 186   0.0000       2.990721        81.3816 
 187   0.0000       2.990721        81.3816 
 188   0.0000       2.993708        81.4629 
 189   0.0000       3.077254        83.7363 
 190   0.0000       3.111302        84.6628 
 191   0.0000       3.111330        84.6636 
 192   0.0000       3.171807        86.3093 
 193   0.0000       3.171817        86.3095 
 194   0.0000       3.192358        86.8685 
 195   0.0000       3.204705        87.2045 
 196   0.0000       3.204732        87.2052 
 197   0.0000       3.244796        88.2954 
 198   0.0000       3.274170        89.0947 
 199   0.0000       3.274210        89.0958 
 200   0.0000       3.286004        89.4167 
 201   0.0000       3.286006        89.4168 
 202   0.0000       3.298438        89.7551 
 203   0.0000       3.379178        91.9521 
 204   0.0000       3.409467        92.7763 
 205   0.0000       3.412406        92.8563 
 206   0.0000       3.412412        92.8564 
 207   0.0000       3.451280        93.9141 
 208   0.0000       3.451301        93.9147 
 209   0.0000       3.464554        94.2753 
 210   0.0000       3.464577        94.2759 
 211   0.0000       3.488176        94.9181 
 212   0.0000       3.568365        97.1001 
 213   0.0000       3.568389        97.1008 
 214   0.0000       3.593684        97.7891 
 215   0.0000       3.831951       104.2727 
 216   0.0000       4.074422       110.8707 
 217   0.0000       4.074501       110.8728 
 218   0.0000       4.308590       117.2427 
 219   0.0000       4.373895       119.0197 
 220   0.0000       4.374011       119.0229 
 221   0.0000      12.459059       339.0282 
 222   0.0000      12.459195       339.0319 
 223   0.0000      12.459659       339.0446 
 224   0.0000      12.460425       339.0654 
 225   0.0000      12.460742       339.0740 
 226   0.0000      12.460777       339.0750 
 227   0.0000      12.461276       339.0886 
 228   0.0000      12.461349       339.0906 
 229   0.0000      12.461670       339.0993 
 230   0.0000      12.462498       339.1218 
 231   0.0000      12.462601       339.1246 
 232   0.0000      12.462655       339.1261 
 233   0.0000      12.462894       339.1326 
 234   0.0000      12.463110       339.1385 
 235   0.0000      12.463221       339.1415 
 236   0.0000      12.463324       339.1443 
 237   0.0000      12.463844       339.1584 
 238   0.0000      12.463869       339.1591 
 239   0.0000      12.464245       339.1693 
 240   0.0000      12.464408       339.1738 
 241   0.0000      12.464540       339.1774 
 242   0.0000      12.468233       339.2779 
 243   0.0000      12.468386       339.2820 
 244   0.0000      12.468507       339.2853 
 245   0.0000      12.468515       339.2855 
 246   0.0000      12.468607       339.2880 
 247   0.0000      12.468663       339.2896 
 248   0.0000      12.492953       339.9505 
 249   0.0000      12.493647       339.9694 
 250   0.0000      12.493728       339.9716 
 251   0.0000      12.494367       339.9890 
 252   0.0000      12.494473       339.9919 
 253   0.0000      12.495263       340.0134 
 254   0.0000      12.496056       340.0350 
 255   0.0000      12.499382       340.1255 
 256   0.0000      12.499383       340.1255 
 257   0.0000      12.553151       341.5886 
 258   0.0000      12.553954       341.6105 
 259   0.0000      12.554431       341.6234 
 260   0.0000      12.554862       341.6352 
 261   0.0000      12.554886       341.6358 
 262   0.0000      12.558077       341.7227 
 263   0.0000      12.558096       341.7232 
 264   0.0000      12.561047       341.8035 
 265   0.0000      12.561052       341.8036 
 266   0.0000      12.562344       341.8388 
 267   0.0000      12.562370       341.8395 
 268   0.0000      12.569339       342.0291 
 269   0.0000      12.569340       342.0291 
 270   0.0000      12.570585       342.0630 
 271   0.0000      12.584404       342.4390 
 272   0.0000      12.585668       342.4734 
 273   0.0000      12.586314       342.4910 
 274   0.0000      12.586368       342.4925 
 275   0.0000      12.587102       342.5125 
 276   0.0000      12.610711       343.1549 
 277   0.0000      12.619889       343.4046 
 278   0.0000      12.619949       343.4063 
 279   0.0000      12.623824       343.5117 
 280   0.0000      12.634801       343.8104 
 281   0.0000      12.634830       343.8112 
 282   0.0000      12.712479       345.9241 
 283   0.0000      12.712496       345.9246 
 284   0.0000      12.797054       348.2255 

                 SPIN DOWN ORBITALS
  NO   OCC          E(Eh)            E(eV) 
   0   1.0000    -322.531093     -8776.5172 
   1   1.0000    -322.531074     -8776.5167 
   2   1.0000    -322.531069     -8776.5166 
   3   1.0000    -322.502687     -8775.7443 
   4   1.0000     -38.820440     -1056.3579 
   5   1.0000     -38.820425     -1056.3575 
   6   1.0000     -38.820391     -1056.3565 
   7   1.0000     -38.793290     -1055.6191 
   8   1.0000     -34.040002      -926.2756 
   9   1.0000     -34.039983      -926.2750 
  10   1.0000     -34.039978      -926.2749 
  11   1.0000     -34.039455      -926.2607 
  12   1.0000     -34.039437      -926.2602 
  13   1.0000     -34.039432      -926.2600 
  14   1.0000     -34.039312      -926.2568 
  15   1.0000     -34.039293      -926.2562 
  16   1.0000     -34.039288      -926.2561 
  17   1.0000     -34.012161      -925.5179 
  18   1.0000     -34.012160      -925.5179 
  19   1.0000     -34.012159      -925.5179 
  20   1.0000      -4.578328      -124.5826 
  21   1.0000      -4.577976      -124.5731 
  22   1.0000      -4.577965      -124.5728 
  23   1.0000      -4.551558      -123.8542 
  24   1.0000      -3.093960       -84.1909 
  25   1.0000      -3.091606       -84.1269 
  26   1.0000      -3.091597       -84.1266 
  27   1.0000      -3.089304       -84.0642 
  28   1.0000      -3.089302       -84.0642 
  29   1.0000      -3.088515       -84.0428 
  30   1.0000      -3.087417       -84.0129 
  31   1.0000      -3.087029       -84.0023 
  32   1.0000      -3.087015       -84.0019 
  33   1.0000      -3.066214       -83.4359 
  34   1.0000      -3.061111       -83.2971 
  35   1.0000      -3.061111       -83.2971 
  36   1.0000      -0.787980       -21.4420 
  37   1.0000      -0.692254       -18.8372 
  38   1.0000      -0.663730       -18.0610 
  39   1.0000      -0.663717       -18.0607 
  40   1.0000      -0.652517       -17.7559 
  41   1.0000      -0.647542       -17.6205 
  42   1.0000      -0.647528       -17.6201 
  43   1.0000      -0.645096       -17.5539 
  44   1.0000      -0.636827       -17.3289 
  45   1.0000      -0.636816       -17.3286 
  46   1.0000      -0.626028       -17.0351 
  47   1.0000      -0.625994       -17.0342 
  48   1.0000      -0.623280       -16.9603 
  49   1.0000      -0.622255       -16.9324 
  50   1.0000      -0.622246       -16.9322 
  51   1.0000      -0.612484       -16.6665 
  52   1.0000      -0.603266       -16.4157 
  53   1.0000      -0.602831       -16.4039 
  54   1.0000      -0.602821       -16.4036 
  55   1.0000      -0.599542       -16.3144 
  56   1.0000      -0.599516       -16.3137 
  57   0.0000      -0.537533       -14.6270 
  58   0.0000      -0.495214       -13.4755 
  59   0.0000      -0.495210       -13.4753 
  60   0.0000      -0.408794       -11.1239 
  61   0.0000      -0.376677       -10.2499 
  62   0.0000      -0.357483        -9.7276 
  63   0.0000      -0.357482        -9.7276 
  64   0.0000      -0.348622        -9.4865 
  65   0.0000      -0.348620        -9.4864 
  66   0.0000      -0.222908        -6.0656 
  67   0.0000      -0.211794        -5.7632 
  68   0.0000      -0.211793        -5.7632 
  69   0.0000      -0.207181        -5.6377 
  70   0.0000      -0.206936        -5.6310 
  71   0.0000      -0.206935        -5.6310 
  72   0.0000      -0.203059        -5.5255 
  73   0.0000      -0.171396        -4.6639 
  74   0.0000      -0.155579        -4.2335 
  75   0.0000      -0.147443        -4.0121 
  76   0.0000      -0.147442        -4.0121 
  77   0.0000      -0.142999        -3.8912 
  78   0.0000      -0.142790        -3.8855 
  79   0.0000      -0.142787        -3.8854 
  80   0.0000      -0.137363        -3.7378 
  81   0.0000      -0.137362        -3.7378 
  82   0.0000      -0.082923        -2.2564 
  83   0.0000      -0.081289        -2.2120 
  84   0.0000      -0.081288        -2.2119 
  85   0.0000      -0.072844        -1.9822 
  86   0.0000      -0.072840        -1.9821 
  87   0.0000      -0.071431        -1.9437 
  88   0.0000      -0.063866        -1.7379 
  89   0.0000      -0.049361        -1.3432 
  90   0.0000      -0.049361        -1.3432 
  91   0.0000      -0.040078        -1.0906 
  92   0.0000      -0.030722        -0.8360 
  93   0.0000      -0.030720        -0.8359 
  94   0.0000      -0.021924        -0.5966 
  95   0.0000      -0.021923        -0.5966 
  96   0.0000      -0.015263        -0.4153 
  97   0.0000      -0.003023        -0.0822 
  98   0.0000       0.014116         0.3841 
  99   0.0000       0.038375         1.0442 
 100   0.0000       0.038381         1.0444 
 101   0.0000       0.042576         1.1586 
 102   0.0000       0.042578         1.1586 
 103   0.0000       0.069816         1.8998 
 104   0.0000       0.099247         2.7007 
 105   0.0000       0.099350         2.7034 
 106   0.0000       0.099355         2.7036 
 107   0.0000       0.112147         3.0517 
 108   0.0000       0.112149         3.0517 
 109   0.0000       0.118234         3.2173 
 110   0.0000       0.126937         3.4541 
 111   0.0000       0.126939         3.4542 
 112   0.0000       0.258536         7.0351 
 113   0.0000       0.317883         8.6500 
 114   0.0000       0.327056         8.8996 
 115   0.0000       0.327070         8.9000 
 116   0.0000       0.345053         9.3894 
 117   0.0000       0.345059         9.3895 
 118   0.0000       0.352952         9.6043 
 119   0.0000       0.397033        10.8038 
 120   0.0000       0.397036        10.8039 
 121   0.0000       0.422705        11.5024 
 122   0.0000       0.426371        11.6021 
 123   0.0000       0.426373        11.6022 
 124   0.0000       0.466729        12.7003 
 125   0.0000       0.488396        13.2899 
 126   0.0000       0.488398        13.2900 
 127   0.0000       0.513212        13.9652 
 128   0.0000       0.522922        14.2294 
 129   0.0000       0.522932        14.2297 
 130   0.0000       0.539295        14.6749 
 131   0.0000       0.562717        15.3123 
 132   0.0000       0.562718        15.3123 
 133   0.0000       0.588359        16.0101 
 134   0.0000       0.595351        16.2003 
 135   0.0000       0.595354        16.2004 
 136   0.0000       0.632453        17.2099 
 137   0.0000       0.644880        17.5481 
 138   0.0000       0.644886        17.5482 
 139   0.0000       0.778790        21.1920 
 140   0.0000       0.778790        21.1920 
 141   0.0000       0.780914        21.2497 
 142   0.0000       0.804794        21.8996 
 143   0.0000       0.804814        21.9001 
 144   0.0000       0.829669        22.5764 
 145   0.0000       0.959658        26.1136 
 146   0.0000       0.959692        26.1145 
 147   0.0000       1.042525        28.3686 
 148   0.0000       2.296649        62.4950 
 149   0.0000       2.503805        68.1320 
 150   0.0000       2.503833        68.1328 
 151   0.0000       2.528645        68.8079 
 152   0.0000       2.536891        69.0323 
 153   0.0000       2.536908        69.0328 
 154   0.0000       2.567343        69.8609 
 155   0.0000       2.616814        71.2071 
 156   0.0000       2.616857        71.2083 
 157   0.0000       2.679917        72.9243 
 158   0.0000       2.683638        73.0255 
 159   0.0000       2.683640        73.0255 
 160   0.0000       2.689081        73.1736 
 161   0.0000       2.689110        73.1744 
 162   0.0000       2.730607        74.3036 
 163   0.0000       2.806432        76.3669 
 164   0.0000       2.811027        76.4919 
 165   0.0000       2.811043        76.4924 
 166   0.0000       2.877079        78.2893 
 167   0.0000       2.915933        79.3466 
 168   0.0000       2.921371        79.4945 
 169   0.0000       2.921387        79.4950 
 170   0.0000       2.938662        79.9650 
 171   0.0000       2.938675        79.9654 
 172   0.0000       2.940361        80.0113 
 173   0.0000       2.941713        80.0481 
 174   0.0000       2.942013        80.0562 
 175   0.0000       2.942032        80.0568 
 176   0.0000       2.944070        80.1122 
 177   0.0000       2.944100        80.1130 
 178   0.0000       2.956853        80.4601 
 179   0.0000       2.963780        80.6485 
 180   0.0000       2.963791        80.6489 
 181   0.0000       2.964989        80.6814 
 182   0.0000       2.984875        81.2226 
 183   0.0000       2.987154        81.2846 
 184   0.0000       2.987170        81.2850 
 185   0.0000       2.988352        81.3172 
 186   0.0000       2.994727        81.4907 
 187   0.0000       2.995696        81.5170 
 188   0.0000       2.995699        81.5171 
 189   0.0000       3.080714        83.8305 
 190   0.0000       3.113875        84.7328 
 191   0.0000       3.113903        84.7336 
 192   0.0000       3.174931        86.3943 
 193   0.0000       3.174940        86.3945 
 194   0.0000       3.203674        87.1764 
 195   0.0000       3.212224        87.4091 
 196   0.0000       3.212254        87.4099 
 197   0.0000       3.248909        88.4073 
 198   0.0000       3.280166        89.2578 
 199   0.0000       3.280207        89.2590 
 200   0.0000       3.291793        89.5742 
 201   0.0000       3.291798        89.5744 
 202   0.0000       3.306223        89.9669 
 203   0.0000       3.389382        92.2298 
 204   0.0000       3.415413        92.9381 
 205   0.0000       3.422504        93.1311 
 206   0.0000       3.422510        93.1312 
 207   0.0000       3.457262        94.0769 
 208   0.0000       3.457302        94.0780 
 209   0.0000       3.470655        94.4413 
 210   0.0000       3.470657        94.4414 
 211   0.0000       3.490069        94.9696 
 212   0.0000       3.578460        97.3748 
 213   0.0000       3.578485        97.3755 
 214   0.0000       3.603407        98.0537 
 215   0.0000       3.837496       104.4236 
 216   0.0000       4.081948       111.0755 
 217   0.0000       4.082015       111.0773 
 218   0.0000       4.303339       117.0998 
 219   0.0000       4.377030       119.1050 
 220   0.0000       4.377155       119.1084 
 221   0.0000      12.464030       339.1635 
 222   0.0000      12.464107       339.1656 
 223   0.0000      12.464152       339.1668 
 224   0.0000      12.464397       339.1735 
 225   0.0000      12.465254       339.1968 
 226   0.0000      12.465353       339.1995 
 227   0.0000      12.465879       339.2138 
 228   0.0000      12.466188       339.2222 
 229   0.0000      12.466472       339.2299 
 230   0.0000      12.466831       339.2397 
 231   0.0000      12.466843       339.2400 
 232   0.0000      12.467628       339.2614 
 233   0.0000      12.467735       339.2643 
 234   0.0000      12.467740       339.2645 
 235   0.0000      12.468014       339.2719 
 236   0.0000      12.468266       339.2788 
 237   0.0000      12.468489       339.2848 
 238   0.0000      12.469032       339.2996 
 239   0.0000      12.470428       339.3376 
 240   0.0000      12.470574       339.3416 
 241   0.0000      12.470738       339.3460 
 242   0.0000      12.470816       339.3482 
 243   0.0000      12.471081       339.3554 
 244   0.0000      12.471239       339.3597 
 245   0.0000      12.471519       339.3673 
 246   0.0000      12.471716       339.3726 
 247   0.0000      12.471773       339.3742 
 248   0.0000      12.491918       339.9224 
 249   0.0000      12.492684       339.9432 
 250   0.0000      12.492686       339.9433 
 251   0.0000      12.493101       339.9546 
 252   0.0000      12.493178       339.9566 
 253   0.0000      12.493845       339.9748 
 254   0.0000      12.494643       339.9965 
 255   0.0000      12.498387       340.0984 
 256   0.0000      12.498391       340.0985 
 257   0.0000      12.556933       341.6915 
 258   0.0000      12.557118       341.6965 
 259   0.0000      12.558858       341.7439 
 260   0.0000      12.558875       341.7444 
 261   0.0000      12.562050       341.8308 
 262   0.0000      12.562073       341.8314 
 263   0.0000      12.562179       341.8343 
 264   0.0000      12.563603       341.8730 
 265   0.0000      12.563606       341.8731 
 266   0.0000      12.567372       341.9756 
 267   0.0000      12.567403       341.9764 
 268   0.0000      12.573779       342.1499 
 269   0.0000      12.576965       342.2366 
 270   0.0000      12.576970       342.2367 
 271   0.0000      12.585224       342.4614 
 272   0.0000      12.585276       342.4628 
 273   0.0000      12.585686       342.4739 
 274   0.0000      12.585964       342.4815 
 275   0.0000      12.586718       342.5020 
 276   0.0000      12.618089       343.3556 
 277   0.0000      12.622197       343.4674 
 278   0.0000      12.622266       343.4693 
 279   0.0000      12.625448       343.5559 
 280   0.0000      12.637629       343.8874 
 281   0.0000      12.637649       343.8879 
 282   0.0000      12.721842       346.1789 
 283   0.0000      12.721856       346.1793 
 284   0.0000      12.806708       348.4882 

                    ********************************
                    * MULLIKEN POPULATION ANALYSIS *
                    ********************************

--------------------------------------------
MULLIKEN ATOMIC CHARGES AND SPIN POPULATIONS
--------------------------------------------
   0 Cu:    0.394803    0.092426
   1 Cu:    0.394621    0.092484
   2 Cu:    0.394632    0.092482
   3 Cu:    0.325956    0.469584
   4 H :    0.489988    0.253024
Sum of atomic charges         :    2.0000000
Sum of atomic spin populations:    1.0000000

-----------------------------------------------------
MULLIKEN REDUCED ORBITAL CHARGES AND SPIN POPULATIONS
-----------------------------------------------------
CHARGE
  0 Cus       :     6.617296  s :     6.617296
      pz      :     4.061204  p :    12.252255
      px      :     4.023599
      py      :     4.167451
      dz2     :     1.965499  d :     9.735307
      dxz     :     1.989955
      dyz     :     1.877380
      dx2y2   :     1.982360
      dxy     :     1.920112
      f0      :     0.000052  f :     0.000338
      f+1     :     0.000015
      f-1     :     0.000039
      f+2     :     0.000084
      f-2     :     0.000040
      f+3     :     0.000040
      f-3     :     0.000067
      g0      :     0.000000  g :     0.000002
      g+1     :     0.000000
      g-1     :     0.000000
      g+2     :     0.000000
      g-2     :     0.000000
      g+3     :     0.000000
      g-3     :     0.000000
      g+4     :     0.000000
      g-4     :     0.000000
  1 Cus       :     6.617427  s :     6.617427
      pz      :     4.061214  p :    12.252304
      px      :     4.131508
      py      :     4.059582
      dz2     :     1.965498  d :     9.735308
      dxz     :     1.905505
      dyz     :     1.961795
      dx2y2   :     1.935708
      dxy     :     1.966802
      f0      :     0.000052  f :     0.000338
      f+1     :     0.000033
      f-1     :     0.000021
      f+2     :     0.000051
      f-2     :     0.000073
      f+3     :     0.000040
      f-3     :     0.000067
      g0      :     0.000000  g :     0.000002
      g+1     :     0.000000
      g-1     :     0.000000
      g+2     :     0.000000
      g-2     :     0.000000
      g+3     :     0.000000
      g-3     :     0.000000
      g+4     :     0.000000
      g-4     :     0.000000
  2 Cus       :     6.617419  s :     6.617419
      pz      :     4.061213  p :    12.252301
      px      :     4.131507
      py      :     4.059581
      dz2     :     1.965498  d :     9.735308
      dxz     :     1.905505
      dyz     :     1.961795
      dx2y2   :     1.935708
      dxy     :     1.966802
      f0      :     0.000052  f :     0.000338
      f+1     :     0.000033
      f-1     :     0.000021
      f+2     :     0.000051
      f-2     :     0.000073
      f+3     :     0.000040
      f-3     :     0.000067
      g0      :     0.000000  g :     0.000002
      g+1     :     0.000000
      g-1     :     0.000000
      g+2     :     0.000000
      g-2     :     0.000000
      g+3     :     0.000000
      g-3     :     0.000000
      g+4     :     0.000000
      g-4     :     0.000000
  3 Cus       :     6.811933  s :     6.811933
      pz      :     4.066460  p :    12.106666
      px      :     4.020106
      py      :     4.020101
      dz2     :     1.958894  d :     9.755281
      dxz     :     1.911193
      dyz     :     1.911248
      dx2y2   :     1.986972
      dxy     :     1.986973
      f0      :     0.000045  f :     0.000163
      f+1     :     0.000029
      f-1     :     0.000029
      f+2     :     0.000025
      f-2     :     0.000025
      f+3     :     0.000005
      f-3     :     0.000006
      g0      :     0.000000  g :     0.000001
      g+1     :     0.000000
      g-1     :     0.000000
      g+2     :     0.000000
      g-2     :     0.000000
      g+3     :     0.000000
      g-3     :     0.000000
      g+4     :     0.000000
      g-4     :     0.000000
  4 H s       :     0.587914  s :     0.587914
      pz      :    -0.083702  p :    -0.080361
      px      :     0.001671
      py      :     0.001671
      dz2     :     0.000407  d :     0.002458
      dxz     :     0.000599
      dyz     :     0.000600
      dx2y2   :     0.000427
      dxy     :     0.000426

SPIN
  0 Cus       :    -0.015267  s :    -0.015267
      pz      :     0.032091  p :     0.024446
      px      :    -0.000265
      py      :    -0.007380
      dz2     :    -0.001811  d :     0.083221
      dxz     :    -0.000673
      dyz     :     0.082398
      dx2y2   :     0.003564
      dxy     :    -0.000258
      f0      :     0.000003  f :     0.000026
      f+1     :     0.000000
      f-1     :    -0.000001
      f+2     :     0.000022
      f-2     :    -0.000000
      f+3     :    -0.000000
      f-3     :     0.000002
      g0      :     0.000000  g :     0.000000
      g+1     :     0.000000
      g-1     :    -0.000000
      g+2     :     0.000000
      g-2     :    -0.000000
      g+3     :     0.000000
      g-3     :     0.000000
      g+4     :     0.000000
      g-4     :     0.000000
  1 Cus       :    -0.015267  s :    -0.015267
      pz      :     0.032100  p :     0.024454
      px      :    -0.005601
      py      :    -0.002044
      dz2     :    -0.001804  d :     0.083270
      dxz     :     0.061655
      dyz     :     0.020107
      dx2y2   :     0.000699
      dxy     :     0.002614
      f0      :     0.000003  f :     0.000026
      f+1     :    -0.000000
      f-1     :    -0.000000
      f+2     :     0.000005
      f-2     :     0.000016
      f+3     :    -0.000000
      f-3     :     0.000002
      g0      :     0.000000  g :     0.000000
      g+1     :    -0.000000
      g-1     :     0.000000
      g+2     :    -0.000000
      g-2     :     0.000000
      g+3     :     0.000000
      g-3     :     0.000000
      g+4     :     0.000000
      g-4     :     0.000000
  2 Cus       :    -0.015269  s :    -0.015269
      pz      :     0.032099  p :     0.024454
      px      :    -0.005601
      py      :    -0.002044
      dz2     :    -0.001804  d :     0.083270
      dxz     :     0.061654
      dyz     :     0.020107
      dx2y2   :     0.000699
      dxy     :     0.002614
      f0      :     0.000003  f :     0.000026
      f+1     :    -0.000000
      f-1     :    -0.000000
      f+2     :     0.000005
      f-2     :     0.000016
      f+3     :    -0.000000
      f-3     :     0.000002
      g0      :     0.000000  g :     0.000000
      g+1     :    -0.000000
      g-1     :     0.000000
      g+2     :    -0.000000
      g-2     :     0.000000
      g+3     :     0.000000
      g-3     :     0.000000
      g+4     :     0.000000
      g-4     :     0.000000
  3 Cus       :     0.468806  s :     0.468806
      pz      :     0.012332  p :     0.018980
      px      :     0.003324
      py      :     0.003324
      dz2     :    -0.005201  d :    -0.018210
      dxz     :    -0.005412
      dyz     :    -0.005405
      dx2y2   :    -0.001096
      dxy     :    -0.001096
      f0      :     0.000007  f :     0.000008
      f+1     :     0.000000
      f-1     :     0.000000
      f+2     :     0.000000
      f-2     :     0.000000
      f+3     :     0.000000
      f-3     :     0.000001
      g0      :     0.000000  g :    -0.000000
      g+1     :     0.000000
      g-1     :     0.000000
      g+2     :    -0.000000
      g-2     :    -0.000000
      g+3     :     0.000000
      g-3     :     0.000000
      g+4     :    -0.000000
      g-4     :    -0.000000
  4 H s       :     0.268769  s :     0.268769
      pz      :    -0.019779  p :    -0.015746
      px      :     0.002016
      py      :     0.002017
      dz2     :     0.000047  d :     0.000001
      dxz     :    -0.000025
      dyz     :    -0.000025
      dx2y2   :     0.000002
      dxy     :     0.000002


                     *******************************
                     * LOEWDIN POPULATION ANALYSIS *
                     *******************************

-------------------------------------------
LOEWDIN ATOMIC CHARGES AND SPIN POPULATIONS
-------------------------------------------
   0 Cu:    0.493985    0.238415
   1 Cu:    0.493999    0.238456
   2 Cu:    0.493999    0.238456
   3 Cu:    0.544699    0.159271
   4 H :   -0.026681    0.125401

----------------------------------------------------
LOEWDIN REDUCED ORBITAL CHARGES AND SPIN POPULATIONS
----------------------------------------------------
CHARGE
  0 Cus       :     6.222319  s :     6.222319
      pz      :     4.186018  p :    12.406445
      px      :     4.041175
      py      :     4.179251
      dz2     :     1.983396  d :     9.876314
      dxz     :     1.989561
      dyz     :     1.955023
      dx2y2   :     1.994548
      dxy     :     1.953785
      f0      :     0.000105  f :     0.000935
      f+1     :     0.000041
      f-1     :     0.000137
      f+2     :     0.000288
      f-2     :     0.000066
      f+3     :     0.000155
      f-3     :     0.000144
      g0      :     0.000000  g :     0.000003
      g+1     :     0.000000
      g-1     :     0.000000
      g+2     :     0.000000
      g-2     :     0.000000
      g+3     :     0.000000
      g-3     :     0.000001
      g+4     :     0.000000
      g-4     :     0.000000
  1 Cus       :     6.222336  s :     6.222336
      pz      :     4.186011  p :    12.406435
      px      :     4.144732
      py      :     4.075692
      dz2     :     1.983392  d :     9.876292
      dxz     :     1.963635
      dyz     :     1.980910
      dx2y2   :     1.964007
      dxy     :     1.984349
      f0      :     0.000105  f :     0.000935
      f+1     :     0.000113
      f-1     :     0.000065
      f+2     :     0.000121
      f-2     :     0.000232
      f+3     :     0.000155
      f-3     :     0.000144
      g0      :     0.000000  g :     0.000003
      g+1     :     0.000000
      g-1     :     0.000000
      g+2     :     0.000000
      g-2     :     0.000000
      g+3     :     0.000000
      g-3     :     0.000001
      g+4     :     0.000000
      g-4     :     0.000000
  2 Cus       :     6.222336  s :     6.222336
      pz      :     4.186011  p :    12.406435
      px      :     4.144732
      py      :     4.075692
      dz2     :     1.983392  d :     9.876292
      dxz     :     1.963635
      dyz     :     1.980910
      dx2y2   :     1.964007
      dxy     :     1.984349
      f0      :     0.000105  f :     0.000935
      f+1     :     0.000113
      f-1     :     0.000065
      f+2     :     0.000121
      f-2     :     0.000232
      f+3     :     0.000155
      f-3     :     0.000144
      g0      :     0.000000  g :     0.000003
      g+1     :     0.000000
      g-1     :     0.000000
      g+2     :     0.000000
      g-2     :     0.000000
      g+3     :     0.000000
      g-3     :     0.000001
      g+4     :     0.000000
      g-4     :     0.000000
  3 Cus       :     6.352618  s :     6.352618
      pz      :     4.157755  p :    12.221444
      px      :     4.031847
      py      :     4.031842
      dz2     :     2.017038  d :     9.880808
      dxz     :     1.940311
      dyz     :     1.940364
      dx2y2   :     1.991546
      dxy     :     1.991548
      f0      :     0.000084  f :     0.000430
      f+1     :     0.000107
      f-1     :     0.000107
      f+2     :     0.000057
      f-2     :     0.000057
      f+3     :     0.000010
      f-3     :     0.000008
      g0      :     0.000000  g :     0.000002
      g+1     :     0.000000
      g-1     :     0.000000
      g+2     :     0.000000
      g-2     :     0.000000
      g+3     :     0.000000
      g-3     :     0.000000
      g+4     :     0.000000
      g-4     :     0.000000
  4 H s       :     0.744394  s :     0.744394
      pz      :     0.121214  p :     0.266668
      px      :     0.072734
      py      :     0.072719
      dz2     :     0.002647  d :     0.015619
      dxz     :     0.003971
      dyz     :     0.003971
      dx2y2   :     0.002515
      dxy     :     0.002514

SPIN
  0 Cus       :     0.004080  s :     0.004080
      pz      :     0.110675  p :     0.113599
      px      :     0.000584
      py      :     0.002340
      dz2     :     0.000203  d :     0.120629
      dxz     :    -0.000343
      dyz     :     0.115658
      dx2y2   :     0.004558
      dxy     :     0.000552
      f0      :     0.000006  f :     0.000106
      f+1     :     0.000000
      f-1     :     0.000005
      f+2     :     0.000085
      f-2     :     0.000001
      f+3     :    -0.000001
      f-3     :     0.000010
      g0      :     0.000000  g :     0.000000
      g+1     :     0.000000
      g-1     :    -0.000000
      g+2     :     0.000000
      g-2     :    -0.000000
      g+3     :     0.000000
      g-3     :     0.000000
      g+4     :     0.000000
      g-4     :     0.000000
  1 Cus       :     0.004080  s :     0.004080
      pz      :     0.110673  p :     0.113597
      px      :     0.001901
      py      :     0.001023
      dz2     :     0.000208  d :     0.120673
      dxz     :     0.086680
      dyz     :     0.028670
      dx2y2   :     0.001555
      dxy     :     0.003561
      f0      :     0.000006  f :     0.000106
      f+1     :     0.000003
      f-1     :     0.000001
      f+2     :     0.000022
      f-2     :     0.000064
      f+3     :    -0.000001
      f-3     :     0.000010
      g0      :     0.000000  g :     0.000000
      g+1     :    -0.000000
      g-1     :     0.000000
      g+2     :    -0.000000
      g-2     :     0.000000
      g+3     :     0.000000
      g-3     :     0.000000
      g+4     :     0.000000
      g-4     :     0.000000
  2 Cus       :     0.004080  s :     0.004080
      pz      :     0.110673  p :     0.113597
      px      :     0.001901
      py      :     0.001023
      dz2     :     0.000208  d :     0.120673
      dxz     :     0.086680
      dyz     :     0.028670
      dx2y2   :     0.001555
      dxy     :     0.003561
      f0      :     0.000006  f :     0.000106
      f+1     :     0.000003
      f-1     :     0.000001
      f+2     :     0.000022
      f-2     :     0.000064
      f+3     :    -0.000001
      f-3     :     0.000010
      g0      :     0.000000  g :     0.000000
      g+1     :    -0.000000
      g-1     :     0.000000
      g+2     :    -0.000000
      g-2     :     0.000000
      g+3     :     0.000000
      g-3     :     0.000000
      g+4     :     0.000000
      g-4     :     0.000000
  3 Cus       :     0.161960  s :     0.161960
      pz      :    -0.001303  p :     0.004274
      px      :     0.002788
      py      :     0.002788
      dz2     :     0.006177  d :    -0.006972
      dxz     :    -0.005853
      dyz     :    -0.005846
      dx2y2   :    -0.000725
      dxy     :    -0.000725
      f0      :     0.000011  f :     0.000009
      f+1     :    -0.000002
      f-1     :    -0.000002
      f+2     :     0.000001
      f-2     :     0.000001
      f+3     :     0.000000
      f-3     :     0.000001
      g0      :     0.000000  g :    -0.000000
      g+1     :    -0.000000
      g-1     :    -0.000000
      g+2     :    -0.000000
      g-2     :    -0.000000
      g+3     :     0.000000
      g-3     :    -0.000000
      g+4     :    -0.000000
      g-4     :     0.000000
  4 H s       :     0.111502  s :     0.111502
      pz      :     0.012266  p :     0.013954
      px      :     0.000844
      py      :     0.000843
      dz2     :     0.000060  d :    -0.000054
      dxz     :    -0.000060
      dyz     :    -0.000060
      dx2y2   :     0.000003
      dxy     :     0.000003


                      *****************************
                      * MAYER POPULATION ANALYSIS *
                      *****************************

  NA   - Mulliken gross atomic population
  ZA   - Total nuclear charge
  QA   - Mulliken gross atomic charge
  VA   - Mayer's total valence
  BVA  - Mayer's bonded valence
  FA   - Mayer's free valence

  ATOM       NA         ZA         QA         VA         BVA        FA
  0 Cu    28.6052    29.0000     0.3948     1.5930     1.5743     0.0187
  1 Cu    28.6054    29.0000     0.3946     1.5931     1.5744     0.0187
  2 Cu    28.6054    29.0000     0.3946     1.5931     1.5744     0.0187
  3 Cu    28.6740    29.0000     0.3260     1.4077     1.1855     0.2222
  4 H      0.5100     1.0000     0.4900     0.2814     0.2209     0.0605

  Mayer bond orders larger than 0.100000
B(  0-Cu,  1-Cu) :   0.5845 B(  0-Cu,  2-Cu) :   0.5845 B(  0-Cu,  3-Cu) :   0.3634 
B(  1-Cu,  2-Cu) :   0.5845 B(  1-Cu,  3-Cu) :   0.3635 B(  2-Cu,  3-Cu) :   0.3635 


-------
TIMINGS
-------

Total SCF time: 0 days 0 hours 0 min 4 sec 

Total time                  ....       4.603 sec
Sum of individual times     ....       4.370 sec  ( 95.0%)

Fock matrix formation       ....       3.390 sec  ( 73.6%)
  Split-RI-J                ....       1.442 sec  ( 42.5% of F)
  XC integration            ....       1.804 sec  ( 53.2% of F)
    Basis function eval.    ....       0.083 sec  (  4.6% of XC)
    Density eval.           ....       0.298 sec  ( 16.5% of XC)
    XC-Functional eval.     ....       0.044 sec  (  2.4% of XC)
    XC-Potential eval.      ....       0.628 sec  ( 34.8% of XC)
Diagonalization             ....       0.340 sec  (  7.4%)
Density matrix formation    ....       0.030 sec  (  0.6%)
Population analysis         ....       0.024 sec  (  0.5%)
Initial guess               ....       0.138 sec  (  3.0%)
Orbital Transformation      ....       0.000 sec  (  0.0%)
Orbital Orthonormalization  ....       0.000 sec  (  0.0%)
DIIS solution               ....       0.125 sec  (  2.7%)
Grid generation             ....       0.324 sec  (  7.0%)


-------------------------------------------------------------------------------
                          DFT DISPERSION CORRECTION                            
                                                                               
                              DFTD3 V3.1  Rev 1                                
                          USING Becke-Johnson damping                          
-------------------------------------------------------------------------------
The TPSS functional is recognized
Active option DFTDOPT                   ...         4   

molecular C6(AA) [au] = 2980.231818 


            DFT-D V3
 parameters
 s6 scaling factor         :     1.0000 
 a1 scaling factor         :     0.4535 
 s8 scaling factor         :     1.9435 
 a2 scaling factor         :     4.4752 
 ad hoc parameters k1-k3   :    16.0000     1.3333    -4.0000 

 Edisp/kcal,au: -6.132947713752  -0.009773473251 
 E6   /kcal   :  -2.041030457 
 E8   /kcal   :  -4.091917257 
 % E8         :  66.720237122 

-------------------------   ----------------
Dispersion correction           -0.009773473
-------------------------   ----------------


-------------------------   --------------------
FINAL SINGLE POINT ENERGY     -6562.215175725264
-------------------------   --------------------


                            ***************************************
                            *     ORCA property calculations      *
                            ***************************************

                                    ---------------------
                                    Active property flags
                                    ---------------------
   (+) Dipole Moment


------------------------------------------------------------------------------
                       ORCA ELECTRIC PROPERTIES CALCULATION
------------------------------------------------------------------------------

Dipole Moment Calculation                       ... on
Quadrupole Moment Calculation                   ... off
Polarizability Calculation                      ... off
GBWName                                         ... Cu04C2_H_F.gbw
Electron density file                           ... Cu04C2_H_F.scfp
The origin for moment calculation is the CENTER OF MASS  = ( 0.000000,  0.000000  0.013733)

-------------
DIPOLE MOMENT
-------------
                                X             Y             Z
Electronic contribution:     -0.00000      -0.00007       1.49377
Nuclear contribution   :      0.00000       0.00000      -1.60670
                        -----------------------------------------
Total Dipole Moment    :     -0.00000      -0.00007      -0.11293
                        -----------------------------------------
Magnitude (a.u.)       :      0.11293
Magnitude (Debye)      :      0.28705



--------------------
Rotational spectrum 
--------------------
 
Rotational constants in cm-1:     0.045915     0.042882     0.042882 
Rotational constants in MHz :  1376.483459  1285.559854  1285.559421 

 Dipole components along the rotational axes: 
x,y,z [a.u.] :    -0.112933    -0.000070    -0.000000 
x,y,z [Debye]:    -0.287054    -0.000178    -0.000000 

 

Timings for individual modules:

Sum of individual times         ...        5.642 sec (=   0.094 min)
GTO integral calculation        ...        0.703 sec (=   0.012 min)  12.5 %
SCF iterations                  ...        4.939 sec (=   0.082 min)  87.5 %
                             ****ORCA TERMINATED NORMALLY****
TOTAL RUN TIME: 0 days 0 hours 0 minutes 6 seconds 131 msec
