
                                 *****************
                                 * O   R   C   A *
                                 *****************

           --- An Ab Initio, DFT and Semiempirical electronic structure package ---

                  #######################################################
                  #                        -***-                        #
                  #          Department of theory and spectroscopy      #
                  #               Directorship: Frank Neese             #
                  #        Max Planck Institute fuer Kohlenforschung    #
                  #                Kaiser Wilhelm Platz 1               #
                  #                 D-45470 Muelheim/Ruhr               #
                  #                      Germany                        #
                  #                                                     #
                  #                  All rights reserved                #
                  #                        -***-                        #
                  #######################################################


                         Program Version 4.2.0 -  RELEASE  -


 With contributions from (in alphabetic order):
   Daniel Aravena         : Magnetic Suceptibility
   Michael Atanasov       : Ab Initio Ligand Field Theory (pilot matlab implementation)
   Alexander A. Auer      : GIAO ZORA, VPT2
   Ute Becker             : Parallelization
   Giovanni Bistoni       : ED, misc. LED, open-shell LED, HFLED
   Martin Brehm           : Molecular dynamics
   Dmytro Bykov           : SCF Hessian
   Vijay G. Chilkuri      : MRCI spin determinant printing, contributions to CSF-ICE
   Dipayan Datta          : RHF DLPNO-CCSD density
   Achintya Kumar Dutta   : EOM-CC, STEOM-CC
   Dmitry Ganyushin       : Spin-Orbit,Spin-Spin,Magnetic field MRCI
   Miquel Garcia          : C-PCM Hessian, Gaussian charge scheme
   Yang Guo               : DLPNO-NEVPT2, CIM, IAO-localization
   Andreas Hansen         : Spin unrestricted coupled pair/coupled cluster methods
   Benjamin Helmich-Paris : CASSCF linear response (MC-RPA)
   Lee Huntington         : MR-EOM, pCC
   Robert Izsak           : Overlap fitted RIJCOSX, COSX-SCS-MP3, EOM
   Christian Kollmar      : KDIIS, OOCD, Brueckner-CCSD(T), CCSD density
   Simone Kossmann        : Meta GGA functionals, TD-DFT gradient, OOMP2, MP2 Hessian
   Martin Krupicka        : AUTO-CI
   Lucas Lang             : DCDCAS
   Dagmar Lenk            : GEPOL surface, SMD
   Dimitrios Liakos       : Extrapolation schemes; Compound Job, initial MDCI parallelization
   Dimitrios Manganas     : Further ROCIS development; embedding schemes
   Dimitrios Pantazis     : SARC Basis sets
   Taras Petrenko         : DFT Hessian,TD-DFT gradient, ASA, ECA, R-Raman, ABS, FL, XAS/XES, NRVS
   Peter Pinski           : DLPNO-MP2, DLPNO-MP2 Gradient
   Christoph Reimann      : Effective Core Potentials
   Marius Retegan         : Local ZFS, SOC
   Christoph Riplinger    : Optimizer, TS searches, QM/MM, DLPNO-CCSD(T), (RO)-DLPNO pert. Triples
   Tobias Risthaus        : Range-separated hybrids, TD-DFT gradient, RPA, STAB
   Michael Roemelt        : Original ROCIS implementation
   Masaaki Saitow         : Open-shell DLPNO-CCSD energy and density
   Barbara Sandhoefer     : DKH picture change effects
   Avijit Sen             : IP-ROCIS
   Kantharuban Sivalingam : CASSCF convergence, NEVPT2, FIC-MRCI
   Bernardo de Souza      : ESD, SOC TD-DFT
   Georgi Stoychev        : AutoAux, RI-MP2 NMR
   Willem Van den Heuvel  : Paramagnetic NMR
   Boris Wezisla          : Elementary symmetry handling
   Frank Wennmohs         : Technical directorship


 We gratefully acknowledge several colleagues who have allowed us to
 interface, adapt or use parts of their codes:
   Stefan Grimme, W. Hujo, H. Kruse,             : VdW corrections, initial TS optimization,
                  C. Bannwarth                     DFT functionals, gCP, sTDA/sTD-DF
   Ed Valeev, F. Pavosevic, A. Kumar             : LibInt (2-el integral package), F12 methods
   Garnet Chan, S. Sharma, J. Yang, R. Olivares  : DMRG
   Ulf Ekstrom                                   : XCFun DFT Library
   Mihaly Kallay                                 : mrcc  (arbitrary order and MRCC methods)
   Andreas Klamt, Michael Diedenhofen            : otool_cosmo (COSMO solvation model)
   Jiri Pittner, Ondrej Demel                    : Mk-CCSD
   Frank Weinhold                                : gennbo (NPA and NBO analysis)
   Christopher J. Cramer and Donald G. Truhlar   : smd solvation model
   Lars Goerigk                                  : TD-DFT with DH, B97 family of functionals
   V. Asgeirsson, H. Jonsson                     : NEB implementation
   FAccTs GmbH                                   : IRC, NEB, NEB-TS, Multilevel, MM, QM/MM, CI optimization
   S Lehtola, MJT Oliveira, MAL Marques          : LibXC Library


 Your calculation uses the libint2 library for the computation of 2-el integrals
 For citations please refer to: http://libint.valeyev.net

 Your ORCA version has been built with support for libXC version: 4.2.3
 For citations please refer to: https://tddft.org/programs/libxc/

 This ORCA versions uses:
   CBLAS   interface :  Fast vector & matrix operations
   LAPACKE interface :  Fast linear algebra routines
   SCALAPACK package :  Parallel linear algebra routines


Your calculation utilizes the atom-pairwise dispersion correction
with the Becke-Johnson damping scheme (D3BJ)
Cite in your paper:
S.Grimme, S.Ehrlich, L.Goerigk, J Comput Chem, (2011), 32, 1456–1465 
S.Grimme, J.Antony, S.Ehrlich and H.Krieg, J.Chem.Phys., 132, (2010), 154104 
   

----- Orbital basis set information -----
Your calculation utilizes the basis: def2-TZVPPD
   F. Weigend and R. Ahlrichs, Phys. Chem. Chem. Phys. 7, 3297 (2005).
   D. Rappoport and F. Furche, J. Chem. Phys. 133 134105 (2010).

----- AuxJ basis set information -----
Your calculation utilizes the auxiliary basis: def2/J
   F. Weigend, Phys. Chem. Chem. Phys. 8, 1057 (2006).

================================================================================
                                        WARNINGS
                       Please study these warnings very carefully!
================================================================================


INFO   : the flag for use of LIBINT has been found!

================================================================================
                                       INPUT FILE
================================================================================
NAME = Cu04C2_NH3_F.in
|  1> #
|  2> # Cu04C2_NH3_F TPSS-D3BJ/Def2-TZVPPD
|  3> #
|  4> ! tpss d3bj def2-tzvppd def2/j grid4 nofinalgrid
|  5> 
|  6> *xyz 2 1
|  7> Cu       0.253817    1.375381    0.000000 
|  8> Cu       0.253817   -0.687598    1.191098 
|  9> Cu       0.253817   -0.687598   -1.191098 
| 10> Cu      -1.745352    0.000159    0.000000 
| 11> N        2.725949   -0.000959   -0.000000 
| 12> H        3.150217   -0.936878   -0.000000 
| 13> H        3.150637    0.466806   -0.810419 
| 14> H        3.150637    0.466806    0.810419 
| 15> *
| 16> 
| 17> %maxcore 5000
| 18> 
| 19> %pal
| 20> nprocs = 24
| 21> end
| 22> 
| 23> 
| 24>                          ****END OF INPUT****
================================================================================

                       ****************************
                       * Single Point Calculation *
                       ****************************

---------------------------------
CARTESIAN COORDINATES (ANGSTROEM)
---------------------------------
  Cu     0.253817    1.375381    0.000000
  Cu     0.253817   -0.687598    1.191098
  Cu     0.253817   -0.687598   -1.191098
  Cu    -1.745352    0.000159    0.000000
  N      2.725949   -0.000959   -0.000000
  H      3.150217   -0.936878   -0.000000
  H      3.150637    0.466806   -0.810419
  H      3.150637    0.466806    0.810419

----------------------------
CARTESIAN COORDINATES (A.U.)
----------------------------
  NO LB      ZA    FRAG     MASS         X           Y           Z
   0 Cu   29.0000    0    63.550    0.479645    2.599093    0.000000
   1 Cu   29.0000    0    63.550    0.479645   -1.299372    2.250849
   2 Cu   29.0000    0    63.550    0.479645   -1.299372   -2.250849
   3 Cu   29.0000    0    63.550   -3.298237    0.000300    0.000000
   4 N     7.0000    0    14.007    5.151297   -0.001812   -0.000000
   5 H     1.0000    0     1.008    5.953047   -1.770443   -0.000000
   6 H     1.0000    0     1.008    5.953841    0.882135   -1.531470
   7 H     1.0000    0     1.008    5.953841    0.882135    1.531470

--------------------------------
INTERNAL COORDINATES (ANGSTROEM)
--------------------------------
 Cu     0   0   0     0.000000000000     0.00000000     0.00000000
 Cu     1   0   0     2.382141221684     0.00000000     0.00000000
 Cu     1   2   0     2.382141221684    60.00152137     0.00000000
 Cu     1   2   3     2.426502058488    60.60571613    71.01902084
 N      2   1   3     2.828714228647    65.11752941    74.44399599
 H      5   2   1     1.027593163847    98.03312665   199.34451657
 H      5   2   1     1.027590846655   143.49136135   326.55796517
 H      5   2   1     1.027590846655    98.02466525    93.75695544

---------------------------
INTERNAL COORDINATES (A.U.)
---------------------------
 Cu     0   0   0     0.000000000000     0.00000000     0.00000000
 Cu     1   0   0     4.501594521307     0.00000000     0.00000000
 Cu     1   2   0     4.501594521307    60.00152137     0.00000000
 Cu     1   2   3     4.585424353938    60.60571613    71.01902084
 N      2   1   3     5.345495203269    65.11752941    74.44399599
 H      5   2   1     1.941869656760    98.03312665   199.34451657
 H      5   2   1     1.941865277903   143.49136135   326.55796517
 H      5   2   1     1.941865277903    98.02466525    93.75695544

---------------------
BASIS SET INFORMATION
---------------------
There are 3 groups of distinct atoms

 Group   1 Type Cu  : 17s13p7d2f1g contracted to 6s6p4d2f1g pattern {842111/631111/4111/11/1}
 Group   2 Type N   : 12s6p3d1f contracted to 6s3p3d1f pattern {621111/411/111/1}
 Group   3 Type H   : 5s3p1d contracted to 3s3p1d pattern {311/111/1}

Atom   0Cu   basis set group =>   1
Atom   1Cu   basis set group =>   1
Atom   2Cu   basis set group =>   1
Atom   3Cu   basis set group =>   1
Atom   4N    basis set group =>   2
Atom   5H    basis set group =>   3
Atom   6H    basis set group =>   3
Atom   7H    basis set group =>   3
---------------------------------
AUXILIARY/J BASIS SET INFORMATION
---------------------------------
There are 3 groups of distinct atoms

 Group   1 Type Cu  : 19s5p5d3f3g contracted to 8s5p4d3f3g pattern {121111111/11111/2111/111/111}
 Group   2 Type N   : 12s5p4d2f1g contracted to 6s4p3d1f1g pattern {711111/2111/211/2/1}
 Group   3 Type H   : 5s2p1d contracted to 3s1p1d pattern {311/2/1}

Atom   0Cu   basis set group =>   1
Atom   1Cu   basis set group =>   1
Atom   2Cu   basis set group =>   1
Atom   3Cu   basis set group =>   1
Atom   4N    basis set group =>   2
Atom   5H    basis set group =>   3
Atom   6H    basis set group =>   3
Atom   7H    basis set group =>   3


           ************************************************************
           *        Program running with 24 parallel MPI-processes    *
           *              working on a common directory               *
           ************************************************************
------------------------------------------------------------------------------
                           ORCA GTO INTEGRAL CALCULATION
                           -- RI-GTO INTEGRALS CHOSEN --
------------------------------------------------------------------------------

                         BASIS SET STATISTICS AND STARTUP INFO

Gaussian basis set:
 # of primitive gaussian shells          ...  209
 # of primitive gaussian functions       ...  565
 # of contracted shells                  ...  110
 # of contracted basis functions         ...  356
 Highest angular momentum                ...    4
 Maximum contraction depth               ...    8
Auxiliary gaussian basis set:
 # of primitive gaussian shells          ...  188
 # of primitive gaussian functions       ...  546
 # of contracted shells                  ...  122
 # of contracted aux-basis functions     ...  446
 Highest angular momentum                ...    4
 Maximum contraction depth               ...   12
Ratio of auxiliary to basis functions    ...  1.25
Integral package used                  ... LIBINT
 One Electron integrals                  ... done
 Ordering auxiliary basis shells         ... done
 Integral threshhold             Thresh  ...  1.000e-10
 Primitive cut-off               TCut    ...  1.000e-11
 Pre-screening matrix                    ... done
 Shell pair data                         ... 
 Ordering of the shell pairs             ... done (   0.001 sec) 5412 of 6105 pairs
 Determination of significant pairs      ... done (   0.000 sec)
 Creation of shell pair data             ... done (   0.001 sec)
 Storage of shell pair data              ... done (   0.009 sec)
 Shell pair data done in (   0.010 sec)
 Computing two index integrals           ... done
 Cholesky decomposition of the V-matrix  ... done


Timings:
 Total evaluation time                   ...   0.380 sec (  0.006 min)
 One electron matrix time                ...   0.052 sec (  0.001 min) = 13.6%
 Schwartz matrix evaluation time         ...   0.282 sec (  0.005 min) = 74.2%
 Two index repulsion integral time       ...   0.003 sec (  0.000 min) =  0.9%
 Cholesky decomposition of V             ...   0.003 sec (  0.000 min) =  0.8%
 Three index repulsion integral time     ...   0.000 sec (  0.000 min) =  0.0%



           ************************************************************
           *        Program running with 24 parallel MPI-processes    *
           *              working on a common directory               *
           ************************************************************
-------------------------------------------------------------------------------
                                 ORCA SCF
-------------------------------------------------------------------------------

------------
SCF SETTINGS
------------
Hamiltonian:
 Density Functional     Method          .... DFT(GTOs)
 Exchange Functional    Exchange        .... TPSS
 Correlation Functional Correlation     .... TPSS
 LDA part of GGA corr.  LDAOpt          .... PW91-LDA
 Gradients option       PostSCFGGA      .... off
   Density functional embedding theory  .... OFF
   NL short-range parameter             ....  5.000000
 RI-approximation to the Coulomb term is turned on
   Number of auxiliary basis functions  .... 446


General Settings:
 Integral files         IntName         .... Cu04C2_NH3_F
 Hartree-Fock type      HFTyp           .... RHF
 Total Charge           Charge          ....    2
 Multiplicity           Mult            ....    1
 Number of Electrons    NEL             ....  124
 Basis Dimension        Dim             ....  356
 Nuclear Repulsion      ENuc            ....   1311.3739598430 Eh

Convergence Acceleration:
 DIIS                   CNVDIIS         .... on
   Start iteration      DIISMaxIt       ....    12
   Startup error        DIISStart       ....  0.200000
   # of expansion vecs  DIISMaxEq       ....     5
   Bias factor          DIISBfac        ....   1.050
   Max. coefficient     DIISMaxC        ....  10.000
 Newton-Raphson         CNVNR           .... off
 SOSCF                  CNVSOSCF        .... off
 Level Shifting         CNVShift        .... on
   Level shift para.    LevelShift      ....    0.2500
   Turn off err/grad.   ShiftErr        ....    0.0010
 Zerner damping         CNVZerner       .... off
 Static damping         CNVDamp         .... on
   Fraction old density DampFac         ....    0.7000
   Max. Damping (<1)    DampMax         ....    0.9800
   Min. Damping (>=0)   DampMin         ....    0.0000
   Turn off err/grad.   DampErr         ....    0.1000
 Fernandez-Rico         CNVRico         .... off

SCF Procedure:
 Maximum # iterations   MaxIter         ....   125
 SCF integral mode      SCFMode         .... Direct
   Integral package                     .... LIBINT
 Reset frequency        DirectResetFreq ....    20
 Integral Threshold     Thresh          ....  1.000e-10 Eh
 Primitive CutOff       TCut            ....  1.000e-11 Eh

Convergence Tolerance:
 Convergence Check Mode ConvCheckMode   .... Total+1el-Energy
 Convergence forced     ConvForced      .... 0
 Energy Change          TolE            ....  1.000e-06 Eh
 1-El. energy change                    ....  1.000e-03 Eh
 DIIS Error             TolErr          ....  1.000e-06


Diagonalization of the overlap matrix:
Smallest eigenvalue                        ... 2.025e-04
Time for diagonalization                   ...    0.019 sec
Threshold for overlap eigenvalues          ... 1.000e-08
Number of eigenvalues below threshold      ... 0
Time for construction of square roots      ...    0.014 sec
Total time needed                          ...    0.034 sec

-------------------
DFT GRID GENERATION
-------------------

General Integration Accuracy     IntAcc      ...  4.670
Radial Grid Type                 RadialGrid  ... Gauss-Chebyshev
Angular Grid (max. acc.)         AngularGrid ... Lebedev-302
Angular grid pruning method      GridPruning ... 3 (G Style)
Weight generation scheme         WeightScheme... Becke
Basis function cutoff            BFCut       ...    1.0000e-10
Integration weight cutoff        WCut        ...    1.0000e-14
Grids for H and He will be reduced by one unit

# of grid points (after initial pruning)     ...  54618 (   0.0 sec)
# of grid points (after weights+screening)   ...  52795 (   0.0 sec)
nearest neighbour list constructed           ...    0.0 sec
Grid point re-assignment to atoms done       ...    0.0 sec
Grid point division into batches done        ...    0.3 sec
Reduced shell lists constructed in    0.3 sec

Total number of grid points                  ...    52795
Total number of batches                      ...      830
Average number of points per batch           ...       63
Average number of grid points per atom       ...     6599
Average number of shells per batch           ...    36.42 (33.11%)
Average number of basis functions per batch  ...   101.75 (28.58%)
Average number of large shells per batch     ...    28.08 (77.12%)
Average number of large basis fcns per batch ...    77.81 (76.47%)
Maximum spatial batch extension              ...  17.24, 14.53, 17.24 au
Average spatial batch extension              ...   0.26,  0.24,  0.27 au

Time for grid setup =    0.358 sec

------------------------------
INITIAL GUESS: MODEL POTENTIAL
------------------------------
Loading Hartree-Fock densities                     ... done
Calculating cut-offs                               ... done
Setting up the integral package                    ... done
Initializing the effective Hamiltonian             ... done
Starting the Coulomb interaction                   ... done (   0.0 sec)
Reading the grid                                   ... done
Mapping shells                                     ... done
Starting the XC term evaluation                    ... done (   0.0 sec)
  promolecular density results
     # of electrons  =    125.998537761
     EX              =   -269.470340415
     EC              =     -5.754797575
     EX+EC           =   -275.225137991
Transforming the Hamiltonian                       ... done (   0.0 sec)
Diagonalizing the Hamiltonian                      ... done (   0.0 sec)
Back transforming the eigenvectors                 ... done (   0.0 sec)
Now organizing SCF variables                       ... done
                      ------------------
                      INITIAL GUESS DONE (   0.5 sec)
                      ------------------
--------------
SCF ITERATIONS
--------------
ITER       Energy         Delta-E        Max-DP      RMS-DP      [F,P]     Damp
               ***  Starting incremental Fock matrix formation  ***
  0  -6618.1488790603   0.000000000000 0.04868905  0.00064191  0.2569057 0.7000
  1  -6618.2162940982  -0.067415037940 0.02879126  0.00039150  0.0940879 0.7000
                               ***Turning on DIIS***
  2  -6618.2368161434  -0.020522045173 0.02658027  0.00065178  0.0218475 0.0000
  3  -6618.2739328059  -0.037116662541 0.02076633  0.00024946  0.0667289 0.0000
  4  -6618.2825657927  -0.008632986805 0.00625502  0.00013902  0.0146008 0.0000
  5  -6618.2839021328  -0.001336340068 0.00256220  0.00005768  0.0061122 0.0000
  6  -6618.2840544565  -0.000152323723 0.00112543  0.00002927  0.0041253 0.0000
  7  -6618.2841088908  -0.000054434248 0.00205805  0.00001531  0.0011117 0.0000
  8  -6618.2841094984  -0.000000607647 0.00057900  0.00000831  0.0021447 0.0000
  9  -6618.2841140595  -0.000004561084 0.00085365  0.00001044  0.0005982 0.0000
 10  -6618.2841147508  -0.000000691274 0.00016434  0.00000370  0.0004060 0.0000
 11  -6618.2841158376  -0.000001086803 0.00018879  0.00000188  0.0001881 0.0000
 12  -6618.2841152332   0.000000604322 0.00003482  0.00000061  0.0000791 0.0000
 13  -6618.2841154432  -0.000000209942 0.00007116  0.00000050  0.0000155 0.0000
                 **** Energy Check signals convergence ****

               *****************************************************
               *                     SUCCESS                       *
               *           SCF CONVERGED AFTER  14 CYCLES          *
               *****************************************************


----------------
TOTAL SCF ENERGY
----------------

Total Energy       :        -6618.28411555 Eh         -180092.66652 eV

Components:
Nuclear Repulsion  :         1311.37395984 Eh           35684.29960 eV
Electronic Energy  :        -7929.65807539 Eh         -215776.96612 eV
One Electron Energy:       -11797.41316052 Eh         -321023.93264 eV
Two Electron Energy:         3867.75508513 Eh          105246.96652 eV

Virial components:
Potential Energy   :       -13225.27123452 Eh         -359877.92613 eV
Kinetic Energy     :         6606.98711897 Eh          179785.25961 eV
Virial Ratio       :            2.00170986


DFT components:
N(Alpha)           :       61.999974750330 electrons
N(Beta)            :       61.999974750330 electrons
N(Total)           :      123.999949500661 electrons
E(X)               :     -270.706390814292 Eh       
E(C)               :       -5.748922017668 Eh       
E(XC)              :     -276.455312831960 Eh       
DFET-embed. en.    :        0.000000000000 Eh       

---------------
SCF CONVERGENCE
---------------

  Last Energy change         ...   -1.0696e-07  Tolerance :   1.0000e-06
  Last MAX-Density change    ...    2.8789e-05  Tolerance :   1.0000e-05
  Last RMS-Density change    ...    3.2334e-07  Tolerance :   1.0000e-06
  Last DIIS Error            ...    1.0915e-05  Tolerance :   1.0000e-06

             **** THE GBW FILE WAS UPDATED (Cu04C2_NH3_F.gbw) ****
             **** DENSITY FILE WAS UPDATED (Cu04C2_NH3_F.scfp) ****
             **** ENERGY FILE WAS UPDATED (Cu04C2_NH3_F.en.tmp) ****
             **** THE GBW FILE WAS UPDATED (Cu04C2_NH3_F.gbw) ****
             **** DENSITY FILE WAS UPDATED (Cu04C2_NH3_F.scfp) ****
----------------
ORBITAL ENERGIES
----------------

  NO   OCC          E(Eh)            E(eV) 
   0   2.0000    -322.473933     -8774.9618 
   1   2.0000    -322.473919     -8774.9615 
   2   2.0000    -322.473916     -8774.9614 
   3   2.0000    -322.470065     -8774.8566 
   4   2.0000     -38.763219     -1054.8008 
   5   2.0000     -38.763206     -1054.8005 
   6   2.0000     -38.763182     -1054.7998 
   7   2.0000     -38.760024     -1054.7139 
   8   2.0000     -33.982391      -924.7079 
   9   2.0000     -33.982375      -924.7074 
  10   2.0000     -33.982370      -924.7073 
  11   2.0000     -33.982323      -924.7060 
  12   2.0000     -33.982307      -924.7056 
  13   2.0000     -33.982304      -924.7055 
  14   2.0000     -33.982022      -924.6978 
  15   2.0000     -33.982006      -924.6974 
  16   2.0000     -33.982004      -924.6973 
  17   2.0000     -33.979097      -924.6182 
  18   2.0000     -33.978965      -924.6146 
  19   2.0000     -33.978965      -924.6146 
  20   2.0000     -14.445782      -393.0897 
  21   2.0000      -4.522816      -123.0721 
  22   2.0000      -4.522416      -123.0612 
  23   2.0000      -4.522405      -123.0609 
  24   2.0000      -4.518427      -122.9526 
  25   2.0000      -3.038481       -82.6813 
  26   2.0000      -3.036102       -82.6165 
  27   2.0000      -3.036098       -82.6164 
  28   2.0000      -3.034352       -82.5689 
  29   2.0000      -3.034347       -82.5688 
  30   2.0000      -3.033629       -82.5492 
  31   2.0000      -3.033156       -82.5364 
  32   2.0000      -3.031468       -82.4904 
  33   2.0000      -3.031457       -82.4901 
  34   2.0000      -3.031321       -82.4864 
  35   2.0000      -3.028382       -82.4065 
  36   2.0000      -3.028381       -82.4064 
  37   2.0000      -1.142999       -31.1026 
  38   2.0000      -0.759778       -20.6746 
  39   2.0000      -0.759772       -20.6744 
  40   2.0000      -0.679589       -18.4926 
  41   2.0000      -0.640204       -17.4208 
  42   2.0000      -0.615073       -16.7370 
  43   2.0000      -0.615051       -16.7364 
  44   2.0000      -0.610074       -16.6009 
  45   2.0000      -0.600742       -16.3470 
  46   2.0000      -0.600740       -16.3470 
  47   2.0000      -0.594936       -16.1890 
  48   2.0000      -0.589564       -16.0428 
  49   2.0000      -0.589550       -16.0425 
  50   2.0000      -0.573529       -15.6065 
  51   2.0000      -0.571901       -15.5622 
  52   2.0000      -0.571858       -15.5610 
  53   2.0000      -0.569916       -15.5082 
  54   2.0000      -0.569230       -15.4895 
  55   2.0000      -0.569214       -15.4891 
  56   2.0000      -0.567498       -15.4424 
  57   2.0000      -0.567494       -15.4423 
  58   2.0000      -0.558099       -15.1866 
  59   2.0000      -0.557576       -15.1724 
  60   2.0000      -0.555937       -15.1278 
  61   2.0000      -0.555912       -15.1271 
  62   0.0000      -0.459923       -12.5151 
  63   0.0000      -0.459915       -12.5149 
  64   0.0000      -0.437842       -11.9143 
  65   0.0000      -0.352291        -9.5863 
  66   0.0000      -0.332152        -9.0383 
  67   0.0000      -0.332149        -9.0382 
  68   0.0000      -0.316909        -8.6235 
  69   0.0000      -0.316904        -8.6234 
  70   0.0000      -0.310020        -8.4361 
  71   0.0000      -0.249644        -6.7932 
  72   0.0000      -0.215207        -5.8561 
  73   0.0000      -0.215195        -5.8558 
  74   0.0000      -0.192379        -5.2349 
  75   0.0000      -0.192370        -5.2347 
  76   0.0000      -0.182777        -4.9736 
  77   0.0000      -0.182071        -4.9544 
  78   0.0000      -0.182022        -4.9531 
  79   0.0000      -0.177195        -4.8217 
  80   0.0000      -0.151178        -4.1138 
  81   0.0000      -0.141446        -3.8490 
  82   0.0000      -0.140596        -3.8258 
  83   0.0000      -0.140559        -3.8248 
  84   0.0000      -0.132668        -3.6101 
  85   0.0000      -0.132537        -3.6065 
  86   0.0000      -0.123510        -3.3609 
  87   0.0000      -0.107849        -2.9347 
  88   0.0000      -0.107829        -2.9342 
  89   0.0000      -0.107004        -2.9117 
  90   0.0000      -0.089932        -2.4472 
  91   0.0000      -0.089930        -2.4471 
  92   0.0000      -0.063146        -1.7183 
  93   0.0000      -0.062943        -1.7128 
  94   0.0000      -0.059922        -1.6305 
  95   0.0000      -0.056816        -1.5460 
  96   0.0000      -0.056738        -1.5439 
  97   0.0000      -0.056093        -1.5264 
  98   0.0000      -0.043370        -1.1802 
  99   0.0000      -0.023459        -0.6384 
 100   0.0000      -0.023426        -0.6375 
 101   0.0000      -0.017069        -0.4645 
 102   0.0000      -0.001172        -0.0319 
 103   0.0000      -0.001171        -0.0319 
 104   0.0000       0.003213         0.0874 
 105   0.0000       0.012573         0.3421 
 106   0.0000       0.018391         0.5004 
 107   0.0000       0.018402         0.5007 
 108   0.0000       0.032398         0.8816 
 109   0.0000       0.032852         0.8940 
 110   0.0000       0.032882         0.8948 
 111   0.0000       0.057912         1.5759 
 112   0.0000       0.058016         1.5787 
 113   0.0000       0.063732         1.7342 
 114   0.0000       0.063745         1.7346 
 115   0.0000       0.077650         2.1130 
 116   0.0000       0.093047         2.5319 
 117   0.0000       0.106239         2.8909 
 118   0.0000       0.106310         2.8928 
 119   0.0000       0.123499         3.3606 
 120   0.0000       0.132910         3.6167 
 121   0.0000       0.132933         3.6173 
 122   0.0000       0.142383         3.8744 
 123   0.0000       0.143934         3.9166 
 124   0.0000       0.148715         4.0467 
 125   0.0000       0.148717         4.0468 
 126   0.0000       0.177020         4.8170 
 127   0.0000       0.177056         4.8179 
 128   0.0000       0.195317         5.3148 
 129   0.0000       0.195380         5.3166 
 130   0.0000       0.216576         5.8933 
 131   0.0000       0.230505         6.2724 
 132   0.0000       0.366072         9.9613 
 133   0.0000       0.366094         9.9619 
 134   0.0000       0.385627        10.4934 
 135   0.0000       0.393617        10.7109 
 136   0.0000       0.396157        10.7800 
 137   0.0000       0.396177        10.7805 
 138   0.0000       0.413555        11.2534 
 139   0.0000       0.413566        11.2537 
 140   0.0000       0.429170        11.6783 
 141   0.0000       0.447319        12.1722 
 142   0.0000       0.447382        12.1739 
 143   0.0000       0.460561        12.5325 
 144   0.0000       0.476631        12.9698 
 145   0.0000       0.476675        12.9710 
 146   0.0000       0.504799        13.7363 
 147   0.0000       0.507361        13.8060 
 148   0.0000       0.507368        13.8062 
 149   0.0000       0.516000        14.0411 
 150   0.0000       0.550048        14.9676 
 151   0.0000       0.550070        14.9682 
 152   0.0000       0.565573        15.3900 
 153   0.0000       0.593864        16.1599 
 154   0.0000       0.602325        16.3901 
 155   0.0000       0.602373        16.3914 
 156   0.0000       0.630643        17.1607 
 157   0.0000       0.649615        17.6769 
 158   0.0000       0.649654        17.6780 
 159   0.0000       0.660429        17.9712 
 160   0.0000       0.660445        17.9716 
 161   0.0000       0.704325        19.1657 
 162   0.0000       0.704347        19.1663 
 163   0.0000       0.705970        19.2104 
 164   0.0000       0.757433        20.6108 
 165   0.0000       0.813181        22.1278 
 166   0.0000       0.813199        22.1283 
 167   0.0000       0.817181        22.2366 
 168   0.0000       0.873886        23.7797 
 169   0.0000       0.873958        23.7816 
 170   0.0000       0.875921        23.8350 
 171   0.0000       0.886535        24.1238 
 172   0.0000       0.886550        24.1243 
 173   0.0000       0.910063        24.7641 
 174   0.0000       0.932668        25.3792 
 175   0.0000       0.932689        25.3798 
 176   0.0000       0.967919        26.3384 
 177   0.0000       0.968038        26.3416 
 178   0.0000       1.175507        31.9872 
 179   0.0000       1.292608        35.1737 
 180   0.0000       1.292667        35.1753 
 181   0.0000       1.363345        37.0985 
 182   0.0000       1.493600        40.6429 
 183   0.0000       1.493628        40.6437 
 184   0.0000       2.090464        56.8844 
 185   0.0000       2.241319        60.9894 
 186   0.0000       2.281981        62.0959 
 187   0.0000       2.281983        62.0959 
 188   0.0000       2.471907        67.2640 
 189   0.0000       2.596549        70.6557 
 190   0.0000       2.596561        70.6560 
 191   0.0000       2.633778        71.6687 
 192   0.0000       2.642378        71.9028 
 193   0.0000       2.642413        71.9037 
 194   0.0000       2.676250        72.8245 
 195   0.0000       2.676290        72.8256 
 196   0.0000       2.676450        72.8299 
 197   0.0000       2.695520        73.3488 
 198   0.0000       2.706986        73.6608 
 199   0.0000       2.707001        73.6612 
 200   0.0000       2.782650        75.7198 
 201   0.0000       2.804563        76.3160 
 202   0.0000       2.804568        76.3162 
 203   0.0000       2.841673        77.3258 
 204   0.0000       2.905545        79.0639 
 205   0.0000       2.913340        79.2760 
 206   0.0000       2.950294        80.2816 
 207   0.0000       2.950353        80.2832 
 208   0.0000       2.952305        80.3363 
 209   0.0000       2.952311        80.3365 
 210   0.0000       2.960492        80.5591 
 211   0.0000       2.979137        81.0664 
 212   0.0000       2.979148        81.0667 
 213   0.0000       2.981637        81.1345 
 214   0.0000       2.991112        81.3923 
 215   0.0000       2.992324        81.4253 
 216   0.0000       2.992329        81.4254 
 217   0.0000       2.996048        81.5266 
 218   0.0000       2.996161        81.5297 
 219   0.0000       2.996206        81.5309 
 220   0.0000       2.998513        81.5937 
 221   0.0000       2.998536        81.5943 
 222   0.0000       2.998573        81.5953 
 223   0.0000       2.999938        81.6325 
 224   0.0000       3.005851        81.7934 
 225   0.0000       3.005873        81.7939 
 226   0.0000       3.007146        81.8286 
 227   0.0000       3.007164        81.8291 
 228   0.0000       3.024652        82.3050 
 229   0.0000       3.024658        82.3051 
 230   0.0000       3.033845        82.5551 
 231   0.0000       3.057269        83.1925 
 232   0.0000       3.057312        83.1937 
 233   0.0000       3.058154        83.2166 
 234   0.0000       3.061893        83.3183 
 235   0.0000       3.082294        83.8735 
 236   0.0000       3.082332        83.8745 
 237   0.0000       3.106904        84.5432 
 238   0.0000       3.172116        86.3177 
 239   0.0000       3.180294        86.5402 
 240   0.0000       3.180303        86.5404 
 241   0.0000       3.189617        86.7939 
 242   0.0000       3.204364        87.1952 
 243   0.0000       3.204385        87.1958 
 244   0.0000       3.259853        88.7051 
 245   0.0000       3.259870        88.7056 
 246   0.0000       3.305876        89.9575 
 247   0.0000       3.324257        90.4576 
 248   0.0000       3.324321        90.4594 
 249   0.0000       3.350817        91.1804 
 250   0.0000       3.366540        91.6082 
 251   0.0000       3.366618        91.6103 
 252   0.0000       3.467016        94.3423 
 253   0.0000       3.475554        94.5746 
 254   0.0000       3.475561        94.5748 
 255   0.0000       3.508290        95.4654 
 256   0.0000       3.508321        95.4663 
 257   0.0000       3.520695        95.8030 
 258   0.0000       3.545272        96.4718 
 259   0.0000       3.548445        96.5581 
 260   0.0000       3.548505        96.5597 
 261   0.0000       3.600888        97.9851 
 262   0.0000       3.633552        98.8740 
 263   0.0000       3.633571        98.8745 
 264   0.0000       3.711639       100.9988 
 265   0.0000       3.711740       101.0016 
 266   0.0000       3.855343       104.9092 
 267   0.0000       3.875146       105.4481 
 268   0.0000       3.875339       105.4533 
 269   0.0000       3.951927       107.5374 
 270   0.0000       4.015194       109.2590 
 271   0.0000       4.015343       109.2630 
 272   0.0000       4.056931       110.3947 
 273   0.0000       4.174965       113.6066 
 274   0.0000       4.174997       113.6075 
 275   0.0000       4.249662       115.6392 
 276   0.0000       4.409562       119.9903 
 277   0.0000       4.576969       124.5457 
 278   0.0000       4.577027       124.5472 
 279   0.0000       4.905647       133.4894 
 280   0.0000       4.905670       133.4901 
 281   0.0000       4.976568       135.4193 
 282   0.0000       5.201646       141.5440 
 283   0.0000       5.493120       149.4754 
 284   0.0000       5.607999       152.6014 
 285   0.0000       5.608035       152.6024 
 286   0.0000       5.728172       155.8715 
 287   0.0000       5.728260       155.8739 
 288   0.0000       6.173615       167.9926 
 289   0.0000       6.415267       174.5683 
 290   0.0000       6.415289       174.5689 
 291   0.0000      12.519136       340.6630 
 292   0.0000      12.519439       340.6713 
 293   0.0000      12.519532       340.6738 
 294   0.0000      12.519710       340.6786 
 295   0.0000      12.520178       340.6914 
 296   0.0000      12.520259       340.6936 
 297   0.0000      12.521118       340.7169 
 298   0.0000      12.521340       340.7230 
 299   0.0000      12.521699       340.7328 
 300   0.0000      12.521724       340.7334 
 301   0.0000      12.522085       340.7433 
 302   0.0000      12.522202       340.7464 
 303   0.0000      12.522567       340.7564 
 304   0.0000      12.522916       340.7659 
 305   0.0000      12.522966       340.7672 
 306   0.0000      12.523112       340.7712 
 307   0.0000      12.523238       340.7746 
 308   0.0000      12.523643       340.7856 
 309   0.0000      12.523980       340.7948 
 310   0.0000      12.524016       340.7958 
 311   0.0000      12.524474       340.8083 
 312   0.0000      12.525420       340.8340 
 313   0.0000      12.525517       340.8367 
 314   0.0000      12.525536       340.8372 
 315   0.0000      12.525784       340.8439 
 316   0.0000      12.525831       340.8452 
 317   0.0000      12.525862       340.8460 
 318   0.0000      12.525931       340.8479 
 319   0.0000      12.526027       340.8505 
 320   0.0000      12.526137       340.8535 
 321   0.0000      12.526666       340.8679 
 322   0.0000      12.526693       340.8686 
 323   0.0000      12.527329       340.8859 
 324   0.0000      12.528181       340.9091 
 325   0.0000      12.530828       340.9812 
 326   0.0000      12.530910       340.9834 
 327   0.0000      12.610617       343.1523 
 328   0.0000      12.611519       343.1769 
 329   0.0000      12.611520       343.1769 
 330   0.0000      12.611561       343.1780 
 331   0.0000      12.614005       343.2445 
 332   0.0000      12.614051       343.2458 
 333   0.0000      12.615009       343.2719 
 334   0.0000      12.615387       343.2821 
 335   0.0000      12.615405       343.2826 
 336   0.0000      12.617804       343.3479 
 337   0.0000      12.619986       343.4073 
 338   0.0000      12.620018       343.4081 
 339   0.0000      12.621190       343.4400 
 340   0.0000      12.621879       343.4588 
 341   0.0000      12.621913       343.4597 
 342   0.0000      12.622444       343.4742 
 343   0.0000      12.623154       343.4935 
 344   0.0000      12.625116       343.5469 
 345   0.0000      12.625140       343.5475 
 346   0.0000      12.629296       343.6606 
 347   0.0000      12.629306       343.6609 
 348   0.0000      12.644590       344.0768 
 349   0.0000      12.680494       345.0538 
 350   0.0000      12.680524       345.0546 
 351   0.0000      12.689219       345.2912 
 352   0.0000      12.689551       345.3002 
 353   0.0000      12.699655       345.5752 
 354   0.0000      12.699674       345.5757 
 355   0.0000      32.362477       880.6278 

                    ********************************
                    * MULLIKEN POPULATION ANALYSIS *
                    ********************************

-----------------------
MULLIKEN ATOMIC CHARGES
-----------------------
   0 Cu:    0.460966
   1 Cu:    0.460778
   2 Cu:    0.460751
   3 Cu:    0.229945
   4 N :   -0.274400
   5 H :    0.220827
   6 H :    0.220564
   7 H :    0.220569
Sum of atomic charges:    2.0000000

--------------------------------
MULLIKEN REDUCED ORBITAL CHARGES
--------------------------------
  0 Cus       :     6.568751  s :     6.568751
      pz      :     4.026551  p :    12.166176
      px      :     4.030443
      py      :     4.109182
      dz2     :     1.983125  d :     9.803810
      dxz     :     1.988113
      dyz     :     1.919543
      dx2y2   :     1.939468
      dxy     :     1.973561
      f0      :     0.000026  f :     0.000296
      f+1     :     0.000018
      f-1     :     0.000056
      f+2     :     0.000037
      f-2     :     0.000047
      f+3     :     0.000063
      f-3     :     0.000050
      g0      :     0.000000  g :     0.000001
      g+1     :     0.000000
      g-1     :     0.000000
      g+2     :     0.000000
      g-2     :     0.000000
      g+3     :     0.000000
      g-3     :     0.000000
      g+4     :     0.000000
      g-4     :     0.000000
  1 Cus       :     6.568806  s :     6.568806
      pz      :     4.088549  p :    12.166263
      px      :     4.030458
      py      :     4.047256
      dz2     :     1.930575  d :     9.803855
      dxz     :     1.977195
      dyz     :     1.965348
      dx2y2   :     1.946271
      dxy     :     1.984466
      f0      :     0.000046  f :     0.000296
      f+1     :     0.000055
      f-1     :     0.000059
      f+2     :     0.000036
      f-2     :     0.000040
      f+3     :     0.000033
      f-3     :     0.000027
      g0      :     0.000000  g :     0.000001
      g+1     :     0.000000
      g-1     :     0.000000
      g+2     :     0.000000
      g-2     :     0.000000
      g+3     :     0.000000
      g-3     :     0.000000
      g+4     :     0.000000
      g-4     :     0.000000
  2 Cus       :     6.568828  s :     6.568828
      pz      :     4.088555  p :    12.166269
      px      :     4.030457
      py      :     4.047257
      dz2     :     1.930575  d :     9.803855
      dxz     :     1.977195
      dyz     :     1.965348
      dx2y2   :     1.946270
      dxy     :     1.984466
      f0      :     0.000046  f :     0.000296
      f+1     :     0.000055
      f-1     :     0.000059
      f+2     :     0.000036
      f-2     :     0.000040
      f+3     :     0.000033
      f-3     :     0.000027
      g0      :     0.000000  g :     0.000001
      g+1     :     0.000000
      g-1     :     0.000000
      g+2     :     0.000000
      g-2     :     0.000000
      g+3     :     0.000000
      g-3     :     0.000000
      g+4     :     0.000000
      g-4     :     0.000000
  3 Cus       :     6.785472  s :     6.785472
      pz      :     4.028008  p :    12.188029
      px      :     4.132015
      py      :     4.028007
      dz2     :     1.983557  d :     9.796311
      dxz     :     1.924144
      dyz     :     1.986246
      dx2y2   :     1.978165
      dxy     :     1.924200
      f0      :     0.000021  f :     0.000242
      f+1     :     0.000047
      f-1     :     0.000011
      f+2     :     0.000030
      f-2     :     0.000038
      f+3     :     0.000053
      f-3     :     0.000041
      g0      :     0.000000  g :     0.000001
      g+1     :     0.000000
      g-1     :     0.000000
      g+2     :     0.000000
      g-2     :     0.000000
      g+3     :     0.000000
      g-3     :     0.000000
      g+4     :     0.000000
      g-4     :     0.000000
  4 N s       :     3.456896  s :     3.456896
      pz      :     1.185627  p :     3.844766
      px      :     1.473461
      py      :     1.185678
      dz2     :    -0.004263  d :    -0.027971
      dxz     :    -0.002753
      dyz     :     0.005328
      dx2y2   :    -0.023527
      dxy     :    -0.002756
      f0      :     0.000016  f :     0.000708
      f+1     :     0.000148
      f-1     :     0.000197
      f+2     :     0.000026
      f-2     :     0.000065
      f+3     :     0.000204
      f-3     :     0.000052
  5 H s       :     0.711671  s :     0.711671
      pz      :     0.019534  p :     0.063963
      px      :     0.020340
      py      :     0.024089
      dz2     :     0.000232  d :     0.003540
      dxz     :     0.000109
      dyz     :     0.001081
      dx2y2   :     0.001105
      dxy     :     0.001013
  6 H s       :     0.711847  s :     0.711847
      pz      :     0.022926  p :     0.064049
      px      :     0.020452
      py      :     0.020671
      dz2     :     0.001124  d :     0.003540
      dxz     :     0.000787
      dyz     :     0.000793
      dx2y2   :     0.000501
      dxy     :     0.000335
  7 H s       :     0.711844  s :     0.711844
      pz      :     0.022925  p :     0.064047
      px      :     0.020451
      py      :     0.020671
      dz2     :     0.001124  d :     0.003540
      dxz     :     0.000787
      dyz     :     0.000793
      dx2y2   :     0.000501
      dxy     :     0.000335


                     *******************************
                     * LOEWDIN POPULATION ANALYSIS *
                     *******************************

----------------------
LOEWDIN ATOMIC CHARGES
----------------------
   0 Cu:    0.408088
   1 Cu:    0.407992
   2 Cu:    0.407991
   3 Cu:    0.482783
   4 N :    0.502541
   5 H :   -0.069798
   6 H :   -0.069799
   7 H :   -0.069799

-------------------------------
LOEWDIN REDUCED ORBITAL CHARGES
-------------------------------
  0 Cus       :     6.284528  s :     6.284528
      pz      :     4.050466  p :    12.341363
      px      :     4.127528
      py      :     4.163369
      dz2     :     1.994390  d :     9.965262
      dxz     :     1.992821
      dyz     :     1.961090
      dx2y2   :     1.982770
      dxy     :     2.034191
      f0      :     0.000077  f :     0.000756
      f+1     :     0.000055
      f-1     :     0.000108
      f+2     :     0.000143
      f-2     :     0.000086
      f+3     :     0.000110
      f-3     :     0.000177
      g0      :     0.000000  g :     0.000002
      g+1     :     0.000000
      g-1     :     0.000000
      g+2     :     0.000000
      g-2     :     0.000000
      g+3     :     0.000000
      g-3     :     0.000000
      g+4     :     0.000000
      g-4     :     0.000000
  1 Cus       :     6.284462  s :     6.284462
      pz      :     4.135148  p :    12.341465
      px      :     4.127615
      py      :     4.078701
      dz2     :     1.971343  d :     9.965322
      dxz     :     2.023866
      dyz     :     1.986068
      dx2y2   :     1.980896
      dxy     :     2.003149
      f0      :     0.000186  f :     0.000756
      f+1     :     0.000098
      f-1     :     0.000111
      f+2     :     0.000130
      f-2     :     0.000085
      f+3     :     0.000068
      f-3     :     0.000079
      g0      :     0.000000  g :     0.000002
      g+1     :     0.000000
      g-1     :     0.000000
      g+2     :     0.000000
      g-2     :     0.000000
      g+3     :     0.000000
      g-3     :     0.000000
      g+4     :     0.000000
      g-4     :     0.000000
  2 Cus       :     6.284463  s :     6.284463
      pz      :     4.135148  p :    12.341465
      px      :     4.127615
      py      :     4.078701
      dz2     :     1.971343  d :     9.965322
      dxz     :     2.023866
      dyz     :     1.986068
      dx2y2   :     1.980896
      dxy     :     2.003149
      f0      :     0.000186  f :     0.000756
      f+1     :     0.000098
      f-1     :     0.000111
      f+2     :     0.000130
      f-2     :     0.000085
      f+3     :     0.000068
      f-3     :     0.000079
      g0      :     0.000000  g :     0.000002
      g+1     :     0.000000
      g-1     :     0.000000
      g+2     :     0.000000
      g-2     :     0.000000
      g+3     :     0.000000
      g-3     :     0.000000
      g+4     :     0.000000
      g-4     :     0.000000
  3 Cus       :     6.351291  s :     6.351291
      pz      :     4.042345  p :    12.263873
      px      :     4.179190
      py      :     4.042339
      dz2     :     1.994837  d :     9.901416
      dxz     :     1.956571
      dyz     :     1.991106
      dx2y2   :     2.002267
      dxy     :     1.956634
      f0      :     0.000068  f :     0.000635
      f+1     :     0.000099
      f-1     :     0.000023
      f+2     :     0.000103
      f-2     :     0.000090
      f+3     :     0.000106
      f-3     :     0.000146
      g0      :     0.000000  g :     0.000002
      g+1     :     0.000000
      g-1     :     0.000000
      g+2     :     0.000000
      g-2     :     0.000000
      g+3     :     0.000000
      g-3     :     0.000000
      g+4     :     0.000000
      g-4     :     0.000000
  4 N s       :     2.882010  s :     2.882010
      pz      :     1.101221  p :     3.439159
      px      :     1.236720
      py      :     1.101218
      dz2     :     0.035374  d :     0.167708
      dxz     :     0.030281
      dyz     :     0.034291
      dx2y2   :     0.037511
      dxy     :     0.030252
      f0      :     0.000015  f :     0.008582
      f+1     :     0.002026
      f-1     :     0.002038
      f+2     :     0.000024
      f-2     :     0.002793
      f+3     :     0.001515
      f-3     :     0.000171
  5 H s       :     0.635095  s :     0.635095
      pz      :     0.087266  p :     0.379356
      px      :     0.141294
      py      :     0.150796
      dz2     :     0.004934  d :     0.055346
      dxz     :     0.002387
      dyz     :     0.014001
      dx2y2   :     0.015644
      dxy     :     0.018382
  6 H s       :     0.635094  s :     0.635094
      pz      :     0.134900  p :     0.379357
      px      :     0.141320
      py      :     0.103137
      dz2     :     0.015336  d :     0.055348
      dxz     :     0.014383
      dyz     :     0.012343
      dx2y2   :     0.006900
      dxy     :     0.006386
  7 H s       :     0.635094  s :     0.635094
      pz      :     0.134900  p :     0.379357
      px      :     0.141320
      py      :     0.103137
      dz2     :     0.015336  d :     0.055348
      dxz     :     0.014383
      dyz     :     0.012343
      dx2y2   :     0.006900
      dxy     :     0.006386


                      *****************************
                      * MAYER POPULATION ANALYSIS *
                      *****************************

  NA   - Mulliken gross atomic population
  ZA   - Total nuclear charge
  QA   - Mulliken gross atomic charge
  VA   - Mayer's total valence
  BVA  - Mayer's bonded valence
  FA   - Mayer's free valence

  ATOM       NA         ZA         QA         VA         BVA        FA
  0 Cu    28.5390    29.0000     0.4610     1.3562     1.3562    -0.0000
  1 Cu    28.5392    29.0000     0.4608     1.3561     1.3561    -0.0000
  2 Cu    28.5392    29.0000     0.4608     1.3561     1.3561    -0.0000
  3 Cu    28.7701    29.0000     0.2299     1.4655     1.4655    -0.0000
  4 N      7.2744     7.0000    -0.2744     2.9697     2.9697     0.0000
  5 H      0.7792     1.0000     0.2208     1.0064     1.0064    -0.0000
  6 H      0.7794     1.0000     0.2206     1.0068     1.0068     0.0000
  7 H      0.7794     1.0000     0.2206     1.0068     1.0068    -0.0000

  Mayer bond orders larger than 0.100000
B(  0-Cu,  1-Cu) :   0.4703 B(  0-Cu,  2-Cu) :   0.4703 B(  0-Cu,  3-Cu) :   0.4543 
B(  1-Cu,  2-Cu) :   0.4702 B(  1-Cu,  3-Cu) :   0.4539 B(  2-Cu,  3-Cu) :   0.4540 
B(  4-N ,  5-H ) :   0.9830 B(  4-N ,  6-H ) :   0.9832 B(  4-N ,  7-H ) :   0.9832 


-------
TIMINGS
-------

Total SCF time: 0 days 0 hours 0 min 4 sec 

Total time                  ....       4.916 sec
Sum of individual times     ....       4.691 sec  ( 95.4%)

Fock matrix formation       ....       3.646 sec  ( 74.2%)
  Split-RI-J                ....       1.786 sec  ( 49.0% of F)
  XC integration            ....       1.701 sec  ( 46.7% of F)
    Basis function eval.    ....       0.160 sec  (  9.4% of XC)
    Density eval.           ....       0.343 sec  ( 20.2% of XC)
    XC-Functional eval.     ....       0.069 sec  (  4.0% of XC)
    XC-Potential eval.      ....       0.592 sec  ( 34.8% of XC)
Diagonalization             ....       0.313 sec  (  6.4%)
Density matrix formation    ....       0.025 sec  (  0.5%)
Population analysis         ....       0.018 sec  (  0.4%)
Initial guess               ....       0.157 sec  (  3.2%)
Orbital Transformation      ....       0.000 sec  (  0.0%)
Orbital Orthonormalization  ....       0.000 sec  (  0.0%)
DIIS solution               ....       0.174 sec  (  3.5%)
Grid generation             ....       0.358 sec  (  7.3%)


-------------------------------------------------------------------------------
                          DFT DISPERSION CORRECTION                            
                                                                               
                              DFTD3 V3.1  Rev 1                                
                          USING Becke-Johnson damping                          
-------------------------------------------------------------------------------
The TPSS functional is recognized
Active option DFTDOPT                   ...         4   

molecular C6(AA) [au] = 3812.926636 


            DFT-D V3
 parameters
 s6 scaling factor         :     1.0000 
 a1 scaling factor         :     0.4535 
 s8 scaling factor         :     1.9435 
 a2 scaling factor         :     4.4752 
 ad hoc parameters k1-k3   :    16.0000     1.3333    -4.0000 

 Edisp/kcal,au: -8.793566413521  -0.014013438584 
 E6   /kcal   :  -3.218841773 
 E8   /kcal   :  -5.574724640 
 % E8         :  63.395491409 

-------------------------   ----------------
Dispersion correction           -0.014013439
-------------------------   ----------------


-------------------------   --------------------
FINAL SINGLE POINT ENERGY     -6618.298128988732
-------------------------   --------------------


                            ***************************************
                            *     ORCA property calculations      *
                            ***************************************

                                    ---------------------
                                    Active property flags
                                    ---------------------
   (+) Dipole Moment


------------------------------------------------------------------------------
                       ORCA ELECTRIC PROPERTIES CALCULATION
------------------------------------------------------------------------------

Dipole Moment Calculation                       ... on
Quadrupole Moment Calculation                   ... off
Polarizability Calculation                      ... off
GBWName                                         ... Cu04C2_NH3_F.gbw
Electron density file                           ... Cu04C2_NH3_F.scfp
The origin for moment calculation is the CENTER OF MASS  = (-0.103236,  0.000036  0.000000)

-------------
DIPOLE MOMENT
-------------
                                X             Y             Z
Electronic contribution:    -11.35997       0.00411       0.00000
Nuclear contribution   :     13.00779      -0.00451       0.00000
                        -----------------------------------------
Total Dipole Moment    :      1.64782      -0.00040       0.00000
                        -----------------------------------------
Magnitude (a.u.)       :      1.64782
Magnitude (Debye)      :      4.18842



--------------------
Rotational spectrum 
--------------------
 
Rotational constants in cm-1:     0.046405     0.032369     0.032369 
Rotational constants in MHz :  1391.178817   970.405392   970.384771 

 Dipole components along the rotational axes: 
x,y,z [a.u.] :    -1.647818     0.000001     0.000237 
x,y,z [Debye]:    -4.188421     0.000002     0.000602 

 

Timings for individual modules:

Sum of individual times         ...        6.010 sec (=   0.100 min)
GTO integral calculation        ...        0.762 sec (=   0.013 min)  12.7 %
SCF iterations                  ...        5.248 sec (=   0.087 min)  87.3 %
                             ****ORCA TERMINATED NORMALLY****
TOTAL RUN TIME: 0 days 0 hours 0 minutes 6 seconds 505 msec
