
                                 *****************
                                 * O   R   C   A *
                                 *****************

           --- An Ab Initio, DFT and Semiempirical electronic structure package ---

                  #######################################################
                  #                        -***-                        #
                  #          Department of theory and spectroscopy      #
                  #               Directorship: Frank Neese             #
                  #        Max Planck Institute fuer Kohlenforschung    #
                  #                Kaiser Wilhelm Platz 1               #
                  #                 D-45470 Muelheim/Ruhr               #
                  #                      Germany                        #
                  #                                                     #
                  #                  All rights reserved                #
                  #                        -***-                        #
                  #######################################################


                         Program Version 4.2.0 -  RELEASE  -


 With contributions from (in alphabetic order):
   Daniel Aravena         : Magnetic Suceptibility
   Michael Atanasov       : Ab Initio Ligand Field Theory (pilot matlab implementation)
   Alexander A. Auer      : GIAO ZORA, VPT2
   Ute Becker             : Parallelization
   Giovanni Bistoni       : ED, misc. LED, open-shell LED, HFLED
   Martin Brehm           : Molecular dynamics
   Dmytro Bykov           : SCF Hessian
   Vijay G. Chilkuri      : MRCI spin determinant printing, contributions to CSF-ICE
   Dipayan Datta          : RHF DLPNO-CCSD density
   Achintya Kumar Dutta   : EOM-CC, STEOM-CC
   Dmitry Ganyushin       : Spin-Orbit,Spin-Spin,Magnetic field MRCI
   Miquel Garcia          : C-PCM Hessian, Gaussian charge scheme
   Yang Guo               : DLPNO-NEVPT2, CIM, IAO-localization
   Andreas Hansen         : Spin unrestricted coupled pair/coupled cluster methods
   Benjamin Helmich-Paris : CASSCF linear response (MC-RPA)
   Lee Huntington         : MR-EOM, pCC
   Robert Izsak           : Overlap fitted RIJCOSX, COSX-SCS-MP3, EOM
   Christian Kollmar      : KDIIS, OOCD, Brueckner-CCSD(T), CCSD density
   Simone Kossmann        : Meta GGA functionals, TD-DFT gradient, OOMP2, MP2 Hessian
   Martin Krupicka        : AUTO-CI
   Lucas Lang             : DCDCAS
   Dagmar Lenk            : GEPOL surface, SMD
   Dimitrios Liakos       : Extrapolation schemes; Compound Job, initial MDCI parallelization
   Dimitrios Manganas     : Further ROCIS development; embedding schemes
   Dimitrios Pantazis     : SARC Basis sets
   Taras Petrenko         : DFT Hessian,TD-DFT gradient, ASA, ECA, R-Raman, ABS, FL, XAS/XES, NRVS
   Peter Pinski           : DLPNO-MP2, DLPNO-MP2 Gradient
   Christoph Reimann      : Effective Core Potentials
   Marius Retegan         : Local ZFS, SOC
   Christoph Riplinger    : Optimizer, TS searches, QM/MM, DLPNO-CCSD(T), (RO)-DLPNO pert. Triples
   Tobias Risthaus        : Range-separated hybrids, TD-DFT gradient, RPA, STAB
   Michael Roemelt        : Original ROCIS implementation
   Masaaki Saitow         : Open-shell DLPNO-CCSD energy and density
   Barbara Sandhoefer     : DKH picture change effects
   Avijit Sen             : IP-ROCIS
   Kantharuban Sivalingam : CASSCF convergence, NEVPT2, FIC-MRCI
   Bernardo de Souza      : ESD, SOC TD-DFT
   Georgi Stoychev        : AutoAux, RI-MP2 NMR
   Willem Van den Heuvel  : Paramagnetic NMR
   Boris Wezisla          : Elementary symmetry handling
   Frank Wennmohs         : Technical directorship


 We gratefully acknowledge several colleagues who have allowed us to
 interface, adapt or use parts of their codes:
   Stefan Grimme, W. Hujo, H. Kruse,             : VdW corrections, initial TS optimization,
                  C. Bannwarth                     DFT functionals, gCP, sTDA/sTD-DF
   Ed Valeev, F. Pavosevic, A. Kumar             : LibInt (2-el integral package), F12 methods
   Garnet Chan, S. Sharma, J. Yang, R. Olivares  : DMRG
   Ulf Ekstrom                                   : XCFun DFT Library
   Mihaly Kallay                                 : mrcc  (arbitrary order and MRCC methods)
   Andreas Klamt, Michael Diedenhofen            : otool_cosmo (COSMO solvation model)
   Jiri Pittner, Ondrej Demel                    : Mk-CCSD
   Frank Weinhold                                : gennbo (NPA and NBO analysis)
   Christopher J. Cramer and Donald G. Truhlar   : smd solvation model
   Lars Goerigk                                  : TD-DFT with DH, B97 family of functionals
   V. Asgeirsson, H. Jonsson                     : NEB implementation
   FAccTs GmbH                                   : IRC, NEB, NEB-TS, Multilevel, MM, QM/MM, CI optimization
   S Lehtola, MJT Oliveira, MAL Marques          : LibXC Library


 Your calculation uses the libint2 library for the computation of 2-el integrals
 For citations please refer to: http://libint.valeyev.net

 Your ORCA version has been built with support for libXC version: 4.2.3
 For citations please refer to: https://tddft.org/programs/libxc/

 This ORCA versions uses:
   CBLAS   interface :  Fast vector & matrix operations
   LAPACKE interface :  Fast linear algebra routines
   SCALAPACK package :  Parallel linear algebra routines


Your calculation utilizes the atom-pairwise dispersion correction
with the Becke-Johnson damping scheme (D3BJ)
Cite in your paper:
S.Grimme, S.Ehrlich, L.Goerigk, J Comput Chem, (2011), 32, 1456–1465 
S.Grimme, J.Antony, S.Ehrlich and H.Krieg, J.Chem.Phys., 132, (2010), 154104 
   

----- Orbital basis set information -----
Your calculation utilizes the basis: def2-TZVPPD
   F. Weigend and R. Ahlrichs, Phys. Chem. Chem. Phys. 7, 3297 (2005).
   D. Rappoport and F. Furche, J. Chem. Phys. 133 134105 (2010).

----- AuxJ basis set information -----
Your calculation utilizes the auxiliary basis: def2/J
   F. Weigend, Phys. Chem. Chem. Phys. 8, 1057 (2006).

================================================================================
                                        WARNINGS
                       Please study these warnings very carefully!
================================================================================


WARNING: your system is open-shell and RHF/RKS was chosen
  ===> : WILL SWITCH to UHF/UKS


INFO   : the flag for use of LIBINT has been found!

================================================================================
                                       INPUT FILE
================================================================================
NAME = Cu04C2_H_A.in
|  1> #
|  2> # Cu04C2_H_A TPSS-D3BJ/Def2-TZVPPD
|  3> #
|  4> ! tpss d3bj def2-tzvppd def2/j grid4 nofinalgrid
|  5> 
|  6> *xyz 2 2
|  7> Cu      -0.000000    1.401870   -0.545062 
|  8> Cu       1.214055   -0.700935   -0.545062 
|  9> Cu      -1.214055   -0.700935   -0.545062 
| 10> Cu       0.000000    0.000000    1.530006 
| 11> H        0.000000    0.000000    3.050192 
| 12> *
| 13> 
| 14> %maxcore 5000
| 15> 
| 16> %pal
| 17> nprocs = 24
| 18> end
| 19> 
| 20> 
| 21>                          ****END OF INPUT****
================================================================================

                       ****************************
                       * Single Point Calculation *
                       ****************************

---------------------------------
CARTESIAN COORDINATES (ANGSTROEM)
---------------------------------
  Cu    -0.000000    1.401870   -0.545062
  Cu     1.214055   -0.700935   -0.545062
  Cu    -1.214055   -0.700935   -0.545062
  Cu     0.000000    0.000000    1.530006
  H      0.000000    0.000000    3.050192

----------------------------
CARTESIAN COORDINATES (A.U.)
----------------------------
  NO LB      ZA    FRAG     MASS         X           Y           Z
   0 Cu   29.0000    0    63.550   -0.000000    2.649150   -1.030018
   1 Cu   29.0000    0    63.550    2.294231   -1.324575   -1.030018
   2 Cu   29.0000    0    63.550   -2.294231   -1.324575   -1.030018
   3 Cu   29.0000    0    63.550    0.000000    0.000000    2.891292
   4 H     1.0000    0     1.008    0.000000    0.000000    5.764028

--------------------------------
INTERNAL COORDINATES (ANGSTROEM)
--------------------------------
 Cu     0   0   0     0.000000000000     0.00000000     0.00000000
 Cu     1   0   0     2.428110049205     0.00000000     0.00000000
 Cu     2   1   0     2.428110000000    60.00000067     0.00000000
 Cu     2   1   3     2.504225752977    61.00046376   288.66439875
 H      4   2   1     1.520186000000   145.95791111   214.86707431

---------------------------
INTERNAL COORDINATES (A.U.)
---------------------------
 Cu     0   0   0     0.000000000000     0.00000000     0.00000000
 Cu     1   0   0     4.588463016019     0.00000000     0.00000000
 Cu     2   1   0     4.588462923036    60.00000067     0.00000000
 Cu     2   1   3     4.732300850640    61.00046376   288.66439875
 H      4   2   1     2.872735212621   145.95791111   214.86707431

---------------------
BASIS SET INFORMATION
---------------------
There are 2 groups of distinct atoms

 Group   1 Type Cu  : 17s13p7d2f1g contracted to 6s6p4d2f1g pattern {842111/631111/4111/11/1}
 Group   2 Type H   : 5s3p1d contracted to 3s3p1d pattern {311/111/1}

Atom   0Cu   basis set group =>   1
Atom   1Cu   basis set group =>   1
Atom   2Cu   basis set group =>   1
Atom   3Cu   basis set group =>   1
Atom   4H    basis set group =>   2
---------------------------------
AUXILIARY/J BASIS SET INFORMATION
---------------------------------
There are 2 groups of distinct atoms

 Group   1 Type Cu  : 19s5p5d3f3g contracted to 8s5p4d3f3g pattern {121111111/11111/2111/111/111}
 Group   2 Type H   : 5s2p1d contracted to 3s1p1d pattern {311/2/1}

Atom   0Cu   basis set group =>   1
Atom   1Cu   basis set group =>   1
Atom   2Cu   basis set group =>   1
Atom   3Cu   basis set group =>   1
Atom   4H    basis set group =>   2


           ************************************************************
           *        Program running with 24 parallel MPI-processes    *
           *              working on a common directory               *
           ************************************************************
------------------------------------------------------------------------------
                           ORCA GTO INTEGRAL CALCULATION
                           -- RI-GTO INTEGRALS CHOSEN --
------------------------------------------------------------------------------

                         BASIS SET STATISTICS AND STARTUP INFO

Gaussian basis set:
 # of primitive gaussian shells          ...  169
 # of primitive gaussian functions       ...  475
 # of contracted shells                  ...   83
 # of contracted basis functions         ...  285
 Highest angular momentum                ...    4
 Maximum contraction depth               ...    8
Auxiliary gaussian basis set:
 # of primitive gaussian shells          ...  148
 # of primitive gaussian functions       ...  444
 # of contracted shells                  ...   97
 # of contracted aux-basis functions     ...  375
 Highest angular momentum                ...    4
 Maximum contraction depth               ...   12
Ratio of auxiliary to basis functions    ...  1.32
Integral package used                  ... LIBINT
 One Electron integrals                  ... done
 Ordering auxiliary basis shells         ... done
 Integral threshhold             Thresh  ...  1.000e-10
 Primitive cut-off               TCut    ...  1.000e-11
 Pre-screening matrix                    ... done
 Shell pair data                         ... 
 Ordering of the shell pairs             ... done (   0.000 sec) 3135 of 3486 pairs
 Determination of significant pairs      ... done (   0.000 sec)
 Creation of shell pair data             ... done (   0.000 sec)
 Storage of shell pair data              ... done (   0.014 sec)
 Shell pair data done in (   0.015 sec)
 Computing two index integrals           ... done
 Cholesky decomposition of the V-matrix  ... done


Timings:
 Total evaluation time                   ...   0.349 sec (  0.006 min)
 One electron matrix time                ...   0.046 sec (  0.001 min) = 13.3%
 Schwartz matrix evaluation time         ...   0.256 sec (  0.004 min) = 73.4%
 Two index repulsion integral time       ...   0.002 sec (  0.000 min) =  0.6%
 Cholesky decomposition of V             ...   0.002 sec (  0.000 min) =  0.7%
 Three index repulsion integral time     ...   0.000 sec (  0.000 min) =  0.0%



           ************************************************************
           *        Program running with 24 parallel MPI-processes    *
           *              working on a common directory               *
           ************************************************************
-------------------------------------------------------------------------------
                                 ORCA SCF
-------------------------------------------------------------------------------

------------
SCF SETTINGS
------------
Hamiltonian:
 Density Functional     Method          .... DFT(GTOs)
 Exchange Functional    Exchange        .... TPSS
 Correlation Functional Correlation     .... TPSS
 LDA part of GGA corr.  LDAOpt          .... PW91-LDA
 Gradients option       PostSCFGGA      .... off
   Density functional embedding theory  .... OFF
   NL short-range parameter             ....  5.000000
 RI-approximation to the Coulomb term is turned on
   Number of auxiliary basis functions  .... 375


General Settings:
 Integral files         IntName         .... Cu04C2_H_A
 Hartree-Fock type      HFTyp           .... UHF
 Total Charge           Charge          ....    2
 Multiplicity           Mult            ....    2
 Number of Electrons    NEL             ....  115
 Basis Dimension        Dim             ....  285
 Nuclear Repulsion      ENuc            ....   1105.0271586451 Eh

Convergence Acceleration:
 DIIS                   CNVDIIS         .... on
   Start iteration      DIISMaxIt       ....    12
   Startup error        DIISStart       ....  0.200000
   # of expansion vecs  DIISMaxEq       ....     5
   Bias factor          DIISBfac        ....   1.050
   Max. coefficient     DIISMaxC        ....  10.000
 Newton-Raphson         CNVNR           .... off
 SOSCF                  CNVSOSCF        .... off
 Level Shifting         CNVShift        .... on
   Level shift para.    LevelShift      ....    0.2500
   Turn off err/grad.   ShiftErr        ....    0.0010
 Zerner damping         CNVZerner       .... off
 Static damping         CNVDamp         .... on
   Fraction old density DampFac         ....    0.7000
   Max. Damping (<1)    DampMax         ....    0.9800
   Min. Damping (>=0)   DampMin         ....    0.0000
   Turn off err/grad.   DampErr         ....    0.1000
 Fernandez-Rico         CNVRico         .... off

SCF Procedure:
 Maximum # iterations   MaxIter         ....   125
 SCF integral mode      SCFMode         .... Direct
   Integral package                     .... LIBINT
 Reset frequency        DirectResetFreq ....    20
 Integral Threshold     Thresh          ....  1.000e-10 Eh
 Primitive CutOff       TCut            ....  1.000e-11 Eh

Convergence Tolerance:
 Convergence Check Mode ConvCheckMode   .... Total+1el-Energy
 Convergence forced     ConvForced      .... 0
 Energy Change          TolE            ....  1.000e-06 Eh
 1-El. energy change                    ....  1.000e-03 Eh
 DIIS Error             TolErr          ....  1.000e-06


Diagonalization of the overlap matrix:
Smallest eigenvalue                        ... 4.269e-04
Time for diagonalization                   ...    0.013 sec
Threshold for overlap eigenvalues          ... 1.000e-08
Number of eigenvalues below threshold      ... 0
Time for construction of square roots      ...    0.010 sec
Total time needed                          ...    0.024 sec

-------------------
DFT GRID GENERATION
-------------------

General Integration Accuracy     IntAcc      ...  4.670
Radial Grid Type                 RadialGrid  ... Gauss-Chebyshev
Angular Grid (max. acc.)         AngularGrid ... Lebedev-302
Angular grid pruning method      GridPruning ... 3 (G Style)
Weight generation scheme         WeightScheme... Becke
Basis function cutoff            BFCut       ...    1.0000e-10
Integration weight cutoff        WCut        ...    1.0000e-14
Grids for H and He will be reduced by one unit

# of grid points (after initial pruning)     ...  41618 (   0.0 sec)
# of grid points (after weights+screening)   ...  41057 (   0.0 sec)
nearest neighbour list constructed           ...    0.0 sec
Grid point re-assignment to atoms done       ...    0.0 sec
Grid point division into batches done        ...    0.3 sec
Reduced shell lists constructed in    0.3 sec

Total number of grid points                  ...    41057
Total number of batches                      ...      644
Average number of points per batch           ...       63
Average number of grid points per atom       ...     8211
Average number of shells per batch           ...    20.93 (25.22%)
Average number of basis functions per batch  ...    57.79 (20.28%)
Average number of large shells per batch     ...    15.54 (74.23%)
Average number of large basis fcns per batch ...    42.89 (74.23%)
Maximum spatial batch extension              ...  20.26, 16.80, 17.24 au
Average spatial batch extension              ...   0.41,  0.35,  0.38 au

Time for grid setup =    0.321 sec

------------------------------
INITIAL GUESS: MODEL POTENTIAL
------------------------------
Loading Hartree-Fock densities                     ... done
Calculating cut-offs                               ... done
Setting up the integral package                    ... done
Initializing the effective Hamiltonian             ... done
Starting the Coulomb interaction                   ... done (   0.0 sec)
Reading the grid                                   ... done
Mapping shells                                     ... done
Starting the XC term evaluation                    ... done (   0.0 sec)
  promolecular density results
     # of electrons  =    116.999566998
     EX              =   -262.317666763
     EC              =     -5.456913274
     EX+EC           =   -267.774580037
Transforming the Hamiltonian                       ... done (   0.0 sec)
Diagonalizing the Hamiltonian                      ... done (   0.0 sec)
Back transforming the eigenvectors                 ... done (   0.0 sec)
Now organizing SCF variables                       ... done
                      ------------------
                      INITIAL GUESS DONE (   0.4 sec)
                      ------------------
--------------
SCF ITERATIONS
--------------
ITER       Energy         Delta-E        Max-DP      RMS-DP      [F,P]     Damp
               ***  Starting incremental Fock matrix formation  ***
  0  -6562.1366514868   0.000000000000 0.03912871  0.00041540  0.1107997 0.7000
  1  -6562.1534030895  -0.016751602641 0.03663023  0.00027594  0.0349039 0.7000
                               ***Turning on DIIS***
  2  -6562.1605442049  -0.007141115459 0.09131721  0.00074440  0.0332082 0.0000
  3  -6562.1738755075  -0.013331302559 0.01088097  0.00014271  0.0567355 0.0000
  4  -6562.1791616930  -0.005286185469 0.00735635  0.00006800  0.0113407 0.0000
  5  -6562.1797155126  -0.000553819593 0.00764205  0.00004756  0.0036738 0.0000
  6  -6562.1798742565  -0.000158743950 0.00849508  0.00004225  0.0065785 0.0000
  7  -6562.1800090541  -0.000134797600 0.00526599  0.00002836  0.0016619 0.0000
  8  -6562.1800753653  -0.000066311153 0.00481618  0.00002513  0.0010786 0.0000
  9  -6562.1801176790  -0.000042313718 0.00468736  0.00004739  0.0008163 0.0000
 10  -6562.1801422322  -0.000024553219 0.00226639  0.00001158  0.0042936 0.0000
 11  -6562.1801608213  -0.000018589133 0.00108914  0.00000600  0.0018395 0.0000
 12  -6562.1801641331  -0.000003311763 0.00079391  0.00000503  0.0004293 0.0000
 13  -6562.1801652389  -0.000001105795 0.00024200  0.00000302  0.0003904 0.0000
 14  -6562.1801651028   0.000000136117 0.00025635  0.00000228  0.0003306 0.0000
                 **** Energy Check signals convergence ****

               *****************************************************
               *                     SUCCESS                       *
               *           SCF CONVERGED AFTER  15 CYCLES          *
               *****************************************************


----------------
TOTAL SCF ENERGY
----------------

Total Energy       :        -6562.18016556 Eh         -178566.00042 eV

Components:
Nuclear Repulsion  :         1105.02715865 Eh           30069.31768 eV
Electronic Energy  :        -7667.20732421 Eh         -208635.31811 eV
One Electron Energy:       -11307.01482997 Eh         -307679.51565 eV
Two Electron Energy:         3639.80750576 Eh           99044.19754 eV

Virial components:
Potential Energy   :       -13113.42474707 Eh         -356834.42848 eV
Kinetic Energy     :         6551.24458151 Eh          178268.42805 eV
Virial Ratio       :            2.00166924


DFT components:
N(Alpha)           :       57.999981904669 electrons
N(Beta)            :       56.999978330579 electrons
N(Total)           :      114.999960235248 electrons
E(X)               :     -263.261097820611 Eh       
E(C)               :       -5.441039159960 Eh       
E(XC)              :     -268.702136980571 Eh       
DFET-embed. en.    :        0.000000000000 Eh       

---------------
SCF CONVERGENCE
---------------

  Last Energy change         ...   -4.5982e-07  Tolerance :   1.0000e-06
  Last MAX-Density change    ...    9.7785e-05  Tolerance :   1.0000e-05
  Last RMS-Density change    ...    6.2451e-07  Tolerance :   1.0000e-06
  Last DIIS Error            ...    6.9260e-05  Tolerance :   1.0000e-06

             **** THE GBW FILE WAS UPDATED (Cu04C2_H_A.gbw) ****
             **** DENSITY FILE WAS UPDATED (Cu04C2_H_A.scfp) ****
             **** ENERGY FILE WAS UPDATED (Cu04C2_H_A.en.tmp) ****
----------------------
UHF SPIN CONTAMINATION
----------------------

Warning: in a DFT calculation there is little theoretical justification to 
         calculate <S**2> as in Hartree-Fock theory. We will do it anyways
         but you should keep in mind that the values have only limited relevance

Expectation value of <S**2>     :     0.757362
Ideal value S*(S+1) for S=0.5   :     0.750000
Deviation                       :     0.007362

             **** THE GBW FILE WAS UPDATED (Cu04C2_H_A.gbw) ****
             **** DENSITY FILE WAS UPDATED (Cu04C2_H_A.scfp) ****
----------------
ORBITAL ENERGIES
----------------
                 SPIN UP ORBITALS
  NO   OCC          E(Eh)            E(eV) 
   0   1.0000    -322.539425     -8776.7440 
   1   1.0000    -322.516419     -8776.1179 
   2   1.0000    -322.516407     -8776.1176 
   3   1.0000    -322.516403     -8776.1175 
   4   1.0000     -38.838802     -1056.8575 
   5   1.0000     -38.805400     -1055.9486 
   6   1.0000     -38.805391     -1055.9484 
   7   1.0000     -38.805361     -1055.9475 
   8   1.0000     -34.060023      -926.8204 
   9   1.0000     -34.055657      -926.7015 
  10   1.0000     -34.055655      -926.7015 
  11   1.0000     -34.024551      -925.8551 
  12   1.0000     -34.024539      -925.8548 
  13   1.0000     -34.024537      -925.8547 
  14   1.0000     -34.024445      -925.8522 
  15   1.0000     -34.024434      -925.8519 
  16   1.0000     -34.024427      -925.8517 
  17   1.0000     -34.024285      -925.8479 
  18   1.0000     -34.024272      -925.8475 
  19   1.0000     -34.024267      -925.8474 
  20   1.0000      -4.595589      -125.0523 
  21   1.0000      -4.564874      -124.2165 
  22   1.0000      -4.564575      -124.2084 
  23   1.0000      -4.564568      -124.2082 
  24   1.0000      -3.121949       -84.9526 
  25   1.0000      -3.098108       -84.3038 
  26   1.0000      -3.098097       -84.3035 
  27   1.0000      -3.080671       -83.8293 
  28   1.0000      -3.078628       -83.7737 
  29   1.0000      -3.078620       -83.7735 
  30   1.0000      -3.075259       -83.6821 
  31   1.0000      -3.075025       -83.6757 
  32   1.0000      -3.075018       -83.6755 
  33   1.0000      -3.074557       -83.6630 
  34   1.0000      -3.074556       -83.6629 
  35   1.0000      -3.073908       -83.6453 
  36   1.0000      -0.743723       -20.2377 
  37   1.0000      -0.685470       -18.6526 
  38   1.0000      -0.666560       -18.1380 
  39   1.0000      -0.666525       -18.1371 
  40   1.0000      -0.653793       -17.7906 
  41   1.0000      -0.647859       -17.6291 
  42   1.0000      -0.647851       -17.6289 
  43   1.0000      -0.640652       -17.4330 
  44   1.0000      -0.639652       -17.4058 
  45   1.0000      -0.639645       -17.4056 
  46   1.0000      -0.632612       -17.2142 
  47   1.0000      -0.623022       -16.9533 
  48   1.0000      -0.623010       -16.9530 
  49   1.0000      -0.613592       -16.6967 
  50   1.0000      -0.613553       -16.6956 
  51   1.0000      -0.612106       -16.6563 
  52   1.0000      -0.612093       -16.6559 
  53   1.0000      -0.611675       -16.6445 
  54   1.0000      -0.608513       -16.5585 
  55   1.0000      -0.608509       -16.5584 
  56   1.0000      -0.607872       -16.5410 
  57   1.0000      -0.599642       -16.3171 
  58   0.0000      -0.494714       -13.4618 
  59   0.0000      -0.494706       -13.4616 
  60   0.0000      -0.461452       -12.5568 
  61   0.0000      -0.371595       -10.1116 
  62   0.0000      -0.361899        -9.8478 
  63   0.0000      -0.361896        -9.8477 
  64   0.0000      -0.350224        -9.5301 
  65   0.0000      -0.350224        -9.5301 
  66   0.0000      -0.257264        -7.0005 
  67   0.0000      -0.223246        -6.0748 
  68   0.0000      -0.223244        -6.0748 
  69   0.0000      -0.209882        -5.7112 
  70   0.0000      -0.209878        -5.7111 
  71   0.0000      -0.209021        -5.6878 
  72   0.0000      -0.203661        -5.5419 
  73   0.0000      -0.176622        -4.8061 
  74   0.0000      -0.159007        -4.3268 
  75   0.0000      -0.149921        -4.0796 
  76   0.0000      -0.149919        -4.0795 
  77   0.0000      -0.148746        -4.0476 
  78   0.0000      -0.146560        -3.9881 
  79   0.0000      -0.146559        -3.9881 
  80   0.0000      -0.139833        -3.8050 
  81   0.0000      -0.139831        -3.8050 
  82   0.0000      -0.120796        -3.2870 
  83   0.0000      -0.086178        -2.3450 
  84   0.0000      -0.086177        -2.3450 
  85   0.0000      -0.077402        -2.1062 
  86   0.0000      -0.077398        -2.1061 
  87   0.0000      -0.075268        -2.0482 
  88   0.0000      -0.071931        -1.9573 
  89   0.0000      -0.067865        -1.8467 
  90   0.0000      -0.067859        -1.8465 
  91   0.0000      -0.036963        -1.0058 
  92   0.0000      -0.036961        -1.0058 
  93   0.0000      -0.027069        -0.7366 
  94   0.0000      -0.027067        -0.7365 
  95   0.0000      -0.026757        -0.7281 
  96   0.0000      -0.017768        -0.4835 
  97   0.0000       0.006488         0.1765 
  98   0.0000       0.019507         0.5308 
  99   0.0000       0.028189         0.7670 
 100   0.0000       0.028189         0.7671 
 101   0.0000       0.040373         1.0986 
 102   0.0000       0.040376         1.0987 
 103   0.0000       0.073894         2.0107 
 104   0.0000       0.073897         2.0108 
 105   0.0000       0.085356         2.3227 
 106   0.0000       0.110968         3.0196 
 107   0.0000       0.110971         3.0197 
 108   0.0000       0.117162         3.1881 
 109   0.0000       0.130068         3.5393 
 110   0.0000       0.130070         3.5394 
 111   0.0000       0.146410         3.9840 
 112   0.0000       0.183942         5.0053 
 113   0.0000       0.282777         7.6948 
 114   0.0000       0.335340         9.1251 
 115   0.0000       0.335343         9.1252 
 116   0.0000       0.339201         9.2301 
 117   0.0000       0.339207         9.2303 
 118   0.0000       0.376371        10.2416 
 119   0.0000       0.381131        10.3711 
 120   0.0000       0.381133        10.3712 
 121   0.0000       0.411808        11.2059 
 122   0.0000       0.417953        11.3731 
 123   0.0000       0.431939        11.7537 
 124   0.0000       0.431943        11.7538 
 125   0.0000       0.464379        12.6364 
 126   0.0000       0.464382        12.6365 
 127   0.0000       0.512003        13.9323 
 128   0.0000       0.512004        13.9323 
 129   0.0000       0.512059        13.9338 
 130   0.0000       0.545025        14.8309 
 131   0.0000       0.545025        14.8309 
 132   0.0000       0.563766        15.3408 
 133   0.0000       0.587432        15.9848 
 134   0.0000       0.587432        15.9848 
 135   0.0000       0.587683        15.9917 
 136   0.0000       0.611703        16.6453 
 137   0.0000       0.611713        16.6456 
 138   0.0000       0.619877        16.8677 
 139   0.0000       0.660157        17.9638 
 140   0.0000       0.660167        17.9641 
 141   0.0000       0.806265        21.9396 
 142   0.0000       0.806280        21.9400 
 143   0.0000       0.806808        21.9544 
 144   0.0000       0.831897        22.6371 
 145   0.0000       0.890508        24.2319 
 146   0.0000       0.890516        24.2322 
 147   0.0000       1.028140        27.9771 
 148   0.0000       2.344619        63.8003 
 149   0.0000       2.377849        64.7046 
 150   0.0000       2.500103        68.0313 
 151   0.0000       2.500134        68.0321 
 152   0.0000       2.561461        69.7009 
 153   0.0000       2.561487        69.7016 
 154   0.0000       2.565702        69.8163 
 155   0.0000       2.604676        70.8768 
 156   0.0000       2.610944        71.0474 
 157   0.0000       2.610960        71.0478 
 158   0.0000       2.701766        73.5188 
 159   0.0000       2.701773        73.5190 
 160   0.0000       2.747315        74.7582 
 161   0.0000       2.780792        75.6692 
 162   0.0000       2.784824        75.7789 
 163   0.0000       2.784839        75.7793 
 164   0.0000       2.817974        76.6810 
 165   0.0000       2.818003        76.6818 
 166   0.0000       2.834319        77.1258 
 167   0.0000       2.910979        79.2118 
 168   0.0000       2.924616        79.5828 
 169   0.0000       2.924621        79.5830 
 170   0.0000       2.933926        79.8362 
 171   0.0000       2.938691        79.9658 
 172   0.0000       2.942233        80.0622 
 173   0.0000       2.945129        80.1410 
 174   0.0000       2.945182        80.1425 
 175   0.0000       2.947844        80.2149 
 176   0.0000       2.947910        80.2167 
 177   0.0000       2.950116        80.2767 
 178   0.0000       2.951643        80.3183 
 179   0.0000       2.951652        80.3185 
 180   0.0000       2.952090        80.3304 
 181   0.0000       2.952091        80.3305 
 182   0.0000       2.952478        80.3410 
 183   0.0000       2.970867        80.8414 
 184   0.0000       2.970869        80.8415 
 185   0.0000       2.975962        80.9800 
 186   0.0000       2.975965        80.9801 
 187   0.0000       2.989171        81.3395 
 188   0.0000       2.994634        81.4881 
 189   0.0000       3.008950        81.8777 
 190   0.0000       3.017998        82.1239 
 191   0.0000       3.018017        82.1244 
 192   0.0000       3.112605        84.6983 
 193   0.0000       3.112616        84.6986 
 194   0.0000       3.182668        86.6048 
 195   0.0000       3.182680        86.6051 
 196   0.0000       3.183235        86.6202 
 197   0.0000       3.204208        87.1909 
 198   0.0000       3.240602        88.1813 
 199   0.0000       3.240657        88.1828 
 200   0.0000       3.255936        88.5985 
 201   0.0000       3.261511        88.7502 
 202   0.0000       3.261534        88.7509 
 203   0.0000       3.385037        92.1115 
 204   0.0000       3.385039        92.1116 
 205   0.0000       3.389051        92.2208 
 206   0.0000       3.423799        93.1663 
 207   0.0000       3.423843        93.1675 
 208   0.0000       3.442237        93.6680 
 209   0.0000       3.442275        93.6691 
 210   0.0000       3.460878        94.1753 
 211   0.0000       3.497419        95.1696 
 212   0.0000       3.518840        95.7525 
 213   0.0000       3.518900        95.7541 
 214   0.0000       3.713812       101.0580 
 215   0.0000       3.713823       101.0583 
 216   0.0000       3.830689       104.2383 
 217   0.0000       3.835561       104.3709 
 218   0.0000       3.835605       104.3721 
 219   0.0000       3.929694       106.9324 
 220   0.0000       4.765839       129.6851 
 221   0.0000      12.451053       338.8104 
 222   0.0000      12.451992       338.8359 
 223   0.0000      12.452380       338.8465 
 224   0.0000      12.454242       338.8972 
 225   0.0000      12.454412       338.9018 
 226   0.0000      12.461320       339.0898 
 227   0.0000      12.462025       339.1089 
 228   0.0000      12.464635       339.1800 
 229   0.0000      12.464683       339.1813 
 230   0.0000      12.477394       339.5271 
 231   0.0000      12.477758       339.5371 
 232   0.0000      12.477782       339.5377 
 233   0.0000      12.478126       339.5471 
 234   0.0000      12.478150       339.5477 
 235   0.0000      12.478522       339.5579 
 236   0.0000      12.478719       339.5632 
 237   0.0000      12.478923       339.5688 
 238   0.0000      12.478952       339.5696 
 239   0.0000      12.479284       339.5786 
 240   0.0000      12.479470       339.5836 
 241   0.0000      12.479523       339.5851 
 242   0.0000      12.479801       339.5927 
 243   0.0000      12.480020       339.5986 
 244   0.0000      12.480103       339.6009 
 245   0.0000      12.480661       339.6161 
 246   0.0000      12.480903       339.6226 
 247   0.0000      12.481037       339.6263 
 248   0.0000      12.481100       339.6280 
 249   0.0000      12.481210       339.6310 
 250   0.0000      12.481287       339.6331 
 251   0.0000      12.483690       339.6985 
 252   0.0000      12.483833       339.7024 
 253   0.0000      12.483858       339.7030 
 254   0.0000      12.484063       339.7086 
 255   0.0000      12.484111       339.7099 
 256   0.0000      12.484126       339.7103 
 257   0.0000      12.550370       341.5129 
 258   0.0000      12.551767       341.5509 
 259   0.0000      12.552578       341.5730 
 260   0.0000      12.552607       341.5738 
 261   0.0000      12.568234       341.9990 
 262   0.0000      12.568240       341.9992 
 263   0.0000      12.569423       342.0314 
 264   0.0000      12.570110       342.0501 
 265   0.0000      12.571065       342.0761 
 266   0.0000      12.571084       342.0766 
 267   0.0000      12.573260       342.1358 
 268   0.0000      12.573264       342.1359 
 269   0.0000      12.573518       342.1428 
 270   0.0000      12.573986       342.1555 
 271   0.0000      12.576226       342.2165 
 272   0.0000      12.576992       342.2374 
 273   0.0000      12.577017       342.2380 
 274   0.0000      12.579481       342.3051 
 275   0.0000      12.579486       342.3052 
 276   0.0000      12.588082       342.5391 
 277   0.0000      12.588114       342.5400 
 278   0.0000      12.614991       343.2714 
 279   0.0000      12.615103       343.2744 
 280   0.0000      12.620529       343.4220 
 281   0.0000      12.631883       343.7310 
 282   0.0000      12.640622       343.9688 
 283   0.0000      12.640661       343.9699 
 284   0.0000      12.912435       351.3652 

                 SPIN DOWN ORBITALS
  NO   OCC          E(Eh)            E(eV) 
   0   1.0000    -322.538890     -8776.7294 
   1   1.0000    -322.516382     -8776.1169 
   2   1.0000    -322.516370     -8776.1166 
   3   1.0000    -322.516366     -8776.1165 
   4   1.0000     -38.834764     -1056.7477 
   5   1.0000     -38.805099     -1055.9404 
   6   1.0000     -38.805090     -1055.9402 
   7   1.0000     -38.805060     -1055.9394 
   8   1.0000     -34.055253      -926.6905 
   9   1.0000     -34.052861      -926.6255 
  10   1.0000     -34.052861      -926.6255 
  11   1.0000     -34.024242      -925.8467 
  12   1.0000     -34.024229      -925.8463 
  13   1.0000     -34.024227      -925.8463 
  14   1.0000     -34.024221      -925.8461 
  15   1.0000     -34.024212      -925.8459 
  16   1.0000     -34.024207      -925.8457 
  17   1.0000     -34.024056      -925.8416 
  18   1.0000     -34.024044      -925.8413 
  19   1.0000     -34.024040      -925.8412 
  20   1.0000      -4.586102      -124.7942 
  21   1.0000      -4.564166      -124.1973 
  22   1.0000      -4.563867      -124.1891 
  23   1.0000      -4.563859      -124.1889 
  24   1.0000      -3.101997       -84.4096 
  25   1.0000      -3.093976       -84.1914 
  26   1.0000      -3.093969       -84.1912 
  27   1.0000      -3.079408       -83.7950 
  28   1.0000      -3.077466       -83.7421 
  29   1.0000      -3.077456       -83.7418 
  30   1.0000      -3.074723       -83.6675 
  31   1.0000      -3.074720       -83.6674 
  32   1.0000      -3.074458       -83.6602 
  33   1.0000      -3.073888       -83.6447 
  34   1.0000      -3.073883       -83.6446 
  35   1.0000      -3.073825       -83.6430 
  36   1.0000      -0.720394       -19.6029 
  37   1.0000      -0.663295       -18.0492 
  38   1.0000      -0.663262       -18.0483 
  39   1.0000      -0.663127       -18.0446 
  40   1.0000      -0.644891       -17.5484 
  41   1.0000      -0.644779       -17.5453 
  42   1.0000      -0.644767       -17.5450 
  43   1.0000      -0.635477       -17.2922 
  44   1.0000      -0.635465       -17.2919 
  45   1.0000      -0.632974       -17.2241 
  46   1.0000      -0.630856       -17.1665 
  47   1.0000      -0.620589       -16.8871 
  48   1.0000      -0.620580       -16.8868 
  49   1.0000      -0.612441       -16.6654 
  50   1.0000      -0.612403       -16.6643 
  51   1.0000      -0.611434       -16.6380 
  52   1.0000      -0.611415       -16.6375 
  53   1.0000      -0.611208       -16.6318 
  54   1.0000      -0.606202       -16.4956 
  55   1.0000      -0.606188       -16.4952 
  56   1.0000      -0.599330       -16.3086 
  57   0.0000      -0.560590       -15.2544 
  58   0.0000      -0.492606       -13.4045 
  59   0.0000      -0.492599       -13.4043 
  60   0.0000      -0.447633       -12.1807 
  61   0.0000      -0.370320       -10.0769 
  62   0.0000      -0.357395        -9.7252 
  63   0.0000      -0.357394        -9.7252 
  64   0.0000      -0.345296        -9.3960 
  65   0.0000      -0.345295        -9.3960 
  66   0.0000      -0.239263        -6.5107 
  67   0.0000      -0.213073        -5.7980 
  68   0.0000      -0.213072        -5.7980 
  69   0.0000      -0.207453        -5.6451 
  70   0.0000      -0.207450        -5.6450 
  71   0.0000      -0.203387        -5.5344 
  72   0.0000      -0.199409        -5.4262 
  73   0.0000      -0.167828        -4.5668 
  74   0.0000      -0.155429        -4.2294 
  75   0.0000      -0.146517        -3.9869 
  76   0.0000      -0.145886        -3.9698 
  77   0.0000      -0.145883        -3.9697 
  78   0.0000      -0.142894        -3.8883 
  79   0.0000      -0.142892        -3.8883 
  80   0.0000      -0.138844        -3.7781 
  81   0.0000      -0.138842        -3.7781 
  82   0.0000      -0.113326        -3.0838 
  83   0.0000      -0.080101        -2.1797 
  84   0.0000      -0.080098        -2.1796 
  85   0.0000      -0.073456        -1.9988 
  86   0.0000      -0.073456        -1.9988 
  87   0.0000      -0.071522        -1.9462 
  88   0.0000      -0.070196        -1.9101 
  89   0.0000      -0.061044        -1.6611 
  90   0.0000      -0.061040        -1.6610 
  91   0.0000      -0.034252        -0.9320 
  92   0.0000      -0.034251        -0.9320 
  93   0.0000      -0.022607        -0.6152 
  94   0.0000      -0.020964        -0.5705 
  95   0.0000      -0.020962        -0.5704 
  96   0.0000      -0.016927        -0.4606 
  97   0.0000       0.015643         0.4257 
  98   0.0000       0.033533         0.9125 
  99   0.0000       0.033929         0.9232 
 100   0.0000       0.033930         0.9233 
 101   0.0000       0.041448         1.1279 
 102   0.0000       0.041450         1.1279 
 103   0.0000       0.082111         2.2344 
 104   0.0000       0.082115         2.2345 
 105   0.0000       0.089724         2.4415 
 106   0.0000       0.114269         3.1094 
 107   0.0000       0.114271         3.1095 
 108   0.0000       0.117553         3.1988 
 109   0.0000       0.137444         3.7400 
 110   0.0000       0.137447         3.7401 
 111   0.0000       0.161833         4.4037 
 112   0.0000       0.207405         5.6438 
 113   0.0000       0.287211         7.8154 
 114   0.0000       0.340722         9.2715 
 115   0.0000       0.340728         9.2717 
 116   0.0000       0.344778         9.3819 
 117   0.0000       0.344780         9.3819 
 118   0.0000       0.377808        10.2807 
 119   0.0000       0.384799        10.4709 
 120   0.0000       0.384802        10.4710 
 121   0.0000       0.415616        11.3095 
 122   0.0000       0.426267        11.5993 
 123   0.0000       0.438688        11.9373 
 124   0.0000       0.438692        11.9374 
 125   0.0000       0.475257        12.9324 
 126   0.0000       0.475258        12.9324 
 127   0.0000       0.512544        13.9470 
 128   0.0000       0.516551        14.0561 
 129   0.0000       0.516552        14.0561 
 130   0.0000       0.562088        15.2952 
 131   0.0000       0.562088        15.2952 
 132   0.0000       0.570814        15.5326 
 133   0.0000       0.589155        16.0317 
 134   0.0000       0.596356        16.2277 
 135   0.0000       0.596357        16.2277 
 136   0.0000       0.618962        16.8428 
 137   0.0000       0.618970        16.8430 
 138   0.0000       0.634896        17.2764 
 139   0.0000       0.677213        18.4279 
 140   0.0000       0.677221        18.4281 
 141   0.0000       0.808270        21.9941 
 142   0.0000       0.808282        21.9945 
 143   0.0000       0.828720        22.5506 
 144   0.0000       0.832628        22.6570 
 145   0.0000       0.910506        24.7761 
 146   0.0000       0.910514        24.7763 
 147   0.0000       1.063297        28.9338 
 148   0.0000       2.388822        65.0032 
 149   0.0000       2.401069        65.3364 
 150   0.0000       2.511379        68.3381 
 151   0.0000       2.511407        68.3388 
 152   0.0000       2.564433        69.7818 
 153   0.0000       2.564460        69.7825 
 154   0.0000       2.567852        69.8748 
 155   0.0000       2.611315        71.0575 
 156   0.0000       2.620183        71.2988 
 157   0.0000       2.620201        71.2993 
 158   0.0000       2.705356        73.6165 
 159   0.0000       2.705364        73.6167 
 160   0.0000       2.747564        74.7650 
 161   0.0000       2.784551        75.7715 
 162   0.0000       2.800062        76.1936 
 163   0.0000       2.800070        76.1938 
 164   0.0000       2.832956        77.0886 
 165   0.0000       2.832982        77.0893 
 166   0.0000       2.836758        77.1921 
 167   0.0000       2.911574        79.2279 
 168   0.0000       2.925777        79.6145 
 169   0.0000       2.925778        79.6145 
 170   0.0000       2.936902        79.9172 
 171   0.0000       2.946507        80.1785 
 172   0.0000       2.946560        80.1800 
 173   0.0000       2.948793        80.2407 
 174   0.0000       2.948850        80.2423 
 175   0.0000       2.948916        80.2441 
 176   0.0000       2.951977        80.3274 
 177   0.0000       2.952115        80.3311 
 178   0.0000       2.952568        80.3434 
 179   0.0000       2.952581        80.3438 
 180   0.0000       2.952895        80.3524 
 181   0.0000       2.952899        80.3525 
 182   0.0000       2.953078        80.3573 
 183   0.0000       2.972532        80.8867 
 184   0.0000       2.972534        80.8868 
 185   0.0000       2.978183        81.0405 
 186   0.0000       2.978185        81.0405 
 187   0.0000       2.991178        81.3941 
 188   0.0000       2.995337        81.5073 
 189   0.0000       3.018435        82.1358 
 190   0.0000       3.033085        82.5344 
 191   0.0000       3.033100        82.5348 
 192   0.0000       3.114534        84.7508 
 193   0.0000       3.114545        84.7511 
 194   0.0000       3.184976        86.6676 
 195   0.0000       3.186504        86.7092 
 196   0.0000       3.186510        86.7094 
 197   0.0000       3.208760        87.3148 
 198   0.0000       3.245729        88.3208 
 199   0.0000       3.245784        88.3223 
 200   0.0000       3.256605        88.6167 
 201   0.0000       3.263077        88.7928 
 202   0.0000       3.263099        88.7934 
 203   0.0000       3.393421        92.3397 
 204   0.0000       3.393859        92.3516 
 205   0.0000       3.393876        92.3521 
 206   0.0000       3.442789        93.6831 
 207   0.0000       3.442815        93.6838 
 208   0.0000       3.450275        93.8867 
 209   0.0000       3.450325        93.8881 
 210   0.0000       3.469867        94.4199 
 211   0.0000       3.498029        95.1862 
 212   0.0000       3.531811        96.1055 
 213   0.0000       3.531877        96.1073 
 214   0.0000       3.734335       101.6164 
 215   0.0000       3.734347       101.6167 
 216   0.0000       3.837769       104.4310 
 217   0.0000       3.837810       104.4321 
 218   0.0000       3.843522       104.5876 
 219   0.0000       3.944131       107.3253 
 220   0.0000       4.787631       130.2781 
 221   0.0000      12.461313       339.0896 
 222   0.0000      12.461385       339.0915 
 223   0.0000      12.464535       339.1773 
 224   0.0000      12.465230       339.1961 
 225   0.0000      12.466728       339.2369 
 226   0.0000      12.467244       339.2509 
 227   0.0000      12.469480       339.3118 
 228   0.0000      12.471280       339.3608 
 229   0.0000      12.471317       339.3618 
 230   0.0000      12.478493       339.5571 
 231   0.0000      12.478651       339.5613 
 232   0.0000      12.478686       339.5623 
 233   0.0000      12.479029       339.5716 
 234   0.0000      12.479119       339.5741 
 235   0.0000      12.479237       339.5773 
 236   0.0000      12.479247       339.5776 
 237   0.0000      12.479527       339.5852 
 238   0.0000      12.479683       339.5894 
 239   0.0000      12.479877       339.5947 
 240   0.0000      12.479977       339.5974 
 241   0.0000      12.480281       339.6057 
 242   0.0000      12.480607       339.6146 
 243   0.0000      12.480655       339.6159 
 244   0.0000      12.480996       339.6252 
 245   0.0000      12.481176       339.6301 
 246   0.0000      12.481402       339.6362 
 247   0.0000      12.481452       339.6376 
 248   0.0000      12.481571       339.6408 
 249   0.0000      12.481747       339.6456 
 250   0.0000      12.481945       339.6510 
 251   0.0000      12.484282       339.7146 
 252   0.0000      12.484344       339.7163 
 253   0.0000      12.484360       339.7167 
 254   0.0000      12.484543       339.7217 
 255   0.0000      12.484644       339.7244 
 256   0.0000      12.484680       339.7254 
 257   0.0000      12.555376       341.6491 
 258   0.0000      12.555617       341.6557 
 259   0.0000      12.555645       341.6565 
 260   0.0000      12.556719       341.6857 
 261   0.0000      12.568868       342.0163 
 262   0.0000      12.568874       342.0164 
 263   0.0000      12.570551       342.0621 
 264   0.0000      12.570639       342.0645 
 265   0.0000      12.572003       342.1016 
 266   0.0000      12.572018       342.1020 
 267   0.0000      12.573901       342.1532 
 268   0.0000      12.573981       342.1554 
 269   0.0000      12.573987       342.1556 
 270   0.0000      12.575453       342.1955 
 271   0.0000      12.576818       342.2326 
 272   0.0000      12.578125       342.2682 
 273   0.0000      12.578151       342.2689 
 274   0.0000      12.580548       342.3341 
 275   0.0000      12.580563       342.3345 
 276   0.0000      12.589943       342.5898 
 277   0.0000      12.589972       342.5906 
 278   0.0000      12.621611       343.4515 
 279   0.0000      12.626257       343.5779 
 280   0.0000      12.626341       343.5802 
 281   0.0000      12.633519       343.7755 
 282   0.0000      12.646879       344.1391 
 283   0.0000      12.646947       344.1409 
 284   0.0000      12.936390       352.0171 

                    ********************************
                    * MULLIKEN POPULATION ANALYSIS *
                    ********************************

--------------------------------------------
MULLIKEN ATOMIC CHARGES AND SPIN POPULATIONS
--------------------------------------------
   0 Cu:    0.570122    0.031307
   1 Cu:    0.570081    0.031339
   2 Cu:    0.570080    0.031342
   3 Cu:   -0.302179    0.512317
   4 H :    0.591896    0.393694
Sum of atomic charges         :    2.0000000
Sum of atomic spin populations:    1.0000000

-----------------------------------------------------
MULLIKEN REDUCED ORBITAL CHARGES AND SPIN POPULATIONS
-----------------------------------------------------
CHARGE
  0 Cus       :     6.499475  s :     6.499475
      pz      :     4.023837  p :    12.138783
      px      :     4.023293
      py      :     4.091653
      dz2     :     1.946032  d :     9.791406
      dxz     :     1.989146
      dyz     :     1.959535
      dx2y2   :     1.975422
      dxy     :     1.921272
      f0      :     0.000032  f :     0.000213
      f+1     :     0.000013
      f-1     :     0.000027
      f+2     :     0.000022
      f-2     :     0.000036
      f+3     :     0.000032
      f-3     :     0.000051
      g0      :     0.000000  g :     0.000001
      g+1     :     0.000000
      g-1     :     0.000000
      g+2     :     0.000000
      g-2     :     0.000000
      g+3     :     0.000000
      g-3     :     0.000000
      g+4     :     0.000000
      g-4     :     0.000000
  1 Cus       :     6.499466  s :     6.499466
      pz      :     4.023851  p :    12.138803
      px      :     4.074549
      py      :     4.040403
      dz2     :     1.946034  d :     9.791437
      dxz     :     1.966935
      dyz     :     1.981740
      dx2y2   :     1.934869
      dxy     :     1.961860
      f0      :     0.000032  f :     0.000213
      f+1     :     0.000024
      f-1     :     0.000017
      f+2     :     0.000032
      f-2     :     0.000025
      f+3     :     0.000032
      f-3     :     0.000051
      g0      :     0.000000  g :     0.000001
      g+1     :     0.000000
      g-1     :     0.000000
      g+2     :     0.000000
      g-2     :     0.000000
      g+3     :     0.000000
      g-3     :     0.000000
      g+4     :     0.000000
      g-4     :     0.000000
  2 Cus       :     6.499466  s :     6.499466
      pz      :     4.023851  p :    12.138803
      px      :     4.074549
      py      :     4.040403
      dz2     :     1.946034  d :     9.791438
      dxz     :     1.966935
      dyz     :     1.981740
      dx2y2   :     1.934869
      dxy     :     1.961860
      f0      :     0.000032  f :     0.000213
      f+1     :     0.000024
      f-1     :     0.000017
      f+2     :     0.000032
      f-2     :     0.000025
      f+3     :     0.000032
      f-3     :     0.000051
      g0      :     0.000000  g :     0.000001
      g+1     :     0.000000
      g-1     :     0.000000
      g+2     :     0.000000
      g-2     :     0.000000
      g+3     :     0.000000
      g-3     :     0.000000
      g+4     :     0.000000
      g-4     :     0.000000
  3 Cus       :     7.691141  s :     7.691141
      pz      :     3.843781  p :    11.886746
      px      :     4.021479
      py      :     4.021486
      dz2     :     1.868362  d :     9.723842
      dxz     :     1.937508
      dyz     :     1.937531
      dx2y2   :     1.990221
      dxy     :     1.990220
      f0      :     0.000286  f :     0.000443
      f+1     :     0.000041
      f-1     :     0.000041
      f+2     :     0.000032
      f-2     :     0.000032
      f+3     :     0.000006
      f-3     :     0.000006
      g0      :     0.000003  g :     0.000006
      g+1     :     0.000001
      g-1     :     0.000001
      g+2     :     0.000000
      g-2     :     0.000000
      g+3     :     0.000000
      g-3     :     0.000000
      g+4     :     0.000000
      g-4     :     0.000000
  4 H s       :     0.492498  s :     0.492498
      pz      :    -0.095007  p :    -0.086455
      px      :     0.004275
      py      :     0.004277
      dz2     :     0.001025  d :     0.002061
      dxz     :     0.000488
      dyz     :     0.000488
      dx2y2   :     0.000030
      dxy     :     0.000030

SPIN
  0 Cus       :     0.017334  s :     0.017334
      pz      :    -0.008799  p :    -0.000144
      px      :    -0.000027
      py      :     0.008682
      dz2     :     0.015399  d :     0.014118
      dxz     :    -0.000398
      dyz     :    -0.004494
      dx2y2   :     0.005063
      dxy     :    -0.001452
      f0      :     0.000001  f :     0.000000
      f+1     :    -0.000000
      f-1     :    -0.000001
      f+2     :     0.000001
      f-2     :    -0.000000
      f+3     :    -0.000000
      f-3     :     0.000000
      g0      :     0.000000  g :     0.000000
      g+1     :    -0.000000
      g-1     :    -0.000000
      g+2     :     0.000000
      g-2     :     0.000000
      g+3     :    -0.000000
      g-3     :     0.000000
      g+4     :     0.000000
      g-4     :     0.000000
  1 Cus       :     0.017340  s :     0.017340
      pz      :    -0.008807  p :    -0.000153
      px      :     0.006504
      py      :     0.002150
      dz2     :     0.015410  d :     0.014152
      dxz     :    -0.003471
      dyz     :    -0.001423
      dx2y2   :     0.000184
      dxy     :     0.003452
      f0      :     0.000001  f :     0.000000
      f+1     :    -0.000001
      f-1     :    -0.000000
      f+2     :     0.000000
      f-2     :     0.000000
      f+3     :    -0.000000
      f-3     :     0.000000
      g0      :    -0.000000  g :     0.000000
      g+1     :    -0.000000
      g-1     :    -0.000000
      g+2     :     0.000000
      g-2     :     0.000000
      g+3     :    -0.000000
      g-3     :     0.000000
      g+4     :     0.000000
      g-4     :     0.000000
  2 Cus       :     0.017342  s :     0.017342
      pz      :    -0.008807  p :    -0.000152
      px      :     0.006505
      py      :     0.002150
      dz2     :     0.015410  d :     0.014152
      dxz     :    -0.003471
      dyz     :    -0.001423
      dx2y2   :     0.000184
      dxy     :     0.003452
      f0      :     0.000001  f :     0.000000
      f+1     :    -0.000001
      f-1     :    -0.000000
      f+2     :     0.000000
      f-2     :     0.000000
      f+3     :    -0.000000
      f-3     :     0.000000
      g0      :    -0.000000  g :     0.000000
      g+1     :    -0.000000
      g-1     :    -0.000000
      g+2     :     0.000000
      g-2     :     0.000000
      g+3     :    -0.000000
      g-3     :     0.000000
      g+4     :     0.000000
      g-4     :     0.000000
  3 Cus       :     0.308868  s :     0.308868
      pz      :     0.011294  p :     0.012711
      px      :     0.000708
      py      :     0.000709
      dz2     :     0.183015  d :     0.190692
      dxz     :     0.002925
      dyz     :     0.002922
      dx2y2   :     0.000915
      dxy     :     0.000915
      f0      :     0.000051  f :     0.000043
      f+1     :    -0.000002
      f-1     :    -0.000002
      f+2     :    -0.000002
      f-2     :    -0.000002
      f+3     :     0.000000
      f-3     :    -0.000000
      g0      :     0.000001  g :     0.000002
      g+1     :     0.000001
      g-1     :     0.000001
      g+2     :    -0.000000
      g-2     :    -0.000000
      g+3     :    -0.000000
      g-3     :     0.000000
      g+4     :     0.000000
      g-4     :     0.000000
  4 H s       :     0.397064  s :     0.397064
      pz      :    -0.005294  p :    -0.003072
      px      :     0.001111
      py      :     0.001111
      dz2     :    -0.000376  d :    -0.000297
      dxz     :     0.000032
      dyz     :     0.000032
      dx2y2   :     0.000008
      dxy     :     0.000008


                     *******************************
                     * LOEWDIN POPULATION ANALYSIS *
                     *******************************

-------------------------------------------
LOEWDIN ATOMIC CHARGES AND SPIN POPULATIONS
-------------------------------------------
   0 Cu:    0.501246    0.049857
   1 Cu:    0.501239    0.049893
   2 Cu:    0.501239    0.049893
   3 Cu:    0.410042    0.450275
   4 H :    0.086235    0.400082

----------------------------------------------------
LOEWDIN REDUCED ORBITAL CHARGES AND SPIN POPULATIONS
----------------------------------------------------
CHARGE
  0 Cus       :     6.306490  s :     6.306490
      pz      :     4.067098  p :    12.280031
      px      :     4.039071
      py      :     4.173862
      dz2     :     1.982877  d :     9.911685
      dxz     :     1.991174
      dyz     :     1.984364
      dx2y2   :     1.994358
      dxy     :     1.958912
      f0      :     0.000056  f :     0.000547
      f+1     :     0.000035
      f-1     :     0.000121
      f+2     :     0.000048
      f-2     :     0.000063
      f+3     :     0.000137
      f-3     :     0.000088
      g0      :     0.000000  g :     0.000002
      g+1     :     0.000000
      g-1     :     0.000000
      g+2     :     0.000000
      g-2     :     0.000000
      g+3     :     0.000000
      g-3     :     0.000000
      g+4     :     0.000000
      g-4     :     0.000000
  1 Cus       :     6.306487  s :     6.306487
      pz      :     4.067100  p :    12.280037
      px      :     4.140166
      py      :     4.072771
      dz2     :     1.982865  d :     9.911690
      dxz     :     1.986067
      dyz     :     1.989471
      dx2y2   :     1.967815
      dxy     :     1.985472
      f0      :     0.000056  f :     0.000547
      f+1     :     0.000099
      f-1     :     0.000056
      f+2     :     0.000059
      f-2     :     0.000052
      f+3     :     0.000137
      f-3     :     0.000088
      g0      :     0.000000  g :     0.000002
      g+1     :     0.000000
      g-1     :     0.000000
      g+2     :     0.000000
      g-2     :     0.000000
      g+3     :     0.000000
      g-3     :     0.000000
      g+4     :     0.000000
      g-4     :     0.000000
  2 Cus       :     6.306487  s :     6.306487
      pz      :     4.067100  p :    12.280037
      px      :     4.140166
      py      :     4.072771
      dz2     :     1.982865  d :     9.911690
      dxz     :     1.986067
      dyz     :     1.989471
      dx2y2   :     1.967815
      dxy     :     1.985472
      f0      :     0.000056  f :     0.000547
      f+1     :     0.000099
      f-1     :     0.000056
      f+2     :     0.000059
      f-2     :     0.000052
      f+3     :     0.000137
      f-3     :     0.000088
      g0      :     0.000000  g :     0.000002
      g+1     :     0.000000
      g-1     :     0.000000
      g+2     :     0.000000
      g-2     :     0.000000
      g+3     :     0.000000
      g-3     :     0.000000
      g+4     :     0.000000
      g-4     :     0.000000
  3 Cus       :     6.370508  s :     6.370508
      pz      :     4.419625  p :    12.488595
      px      :     4.034487
      py      :     4.034483
      dz2     :     1.802339  d :     9.729785
      dxz     :     1.968630
      dyz     :     1.968657
      dx2y2   :     1.995079
      dxy     :     1.995080
      f0      :     0.000671  f :     0.001064
      f+1     :     0.000120
      f-1     :     0.000120
      f+2     :     0.000065
      f-2     :     0.000065
      f+3     :     0.000011
      f-3     :     0.000011
      g0      :     0.000003  g :     0.000006
      g+1     :     0.000001
      g-1     :     0.000001
      g+2     :     0.000001
      g-2     :     0.000001
      g+3     :     0.000000
      g-3     :     0.000000
      g+4     :     0.000000
      g-4     :     0.000000
  4 H s       :     0.779021  s :     0.779021
      pz      :     0.089357  p :     0.120190
      px      :     0.015417
      py      :     0.015415
      dz2     :     0.006940  d :     0.014554
      dxz     :     0.003601
      dyz     :     0.003601
      dx2y2   :     0.000206
      dxy     :     0.000206

SPIN
  0 Cus       :     0.006265  s :     0.006265
      pz      :     0.012418  p :     0.016816
      px      :     0.000013
      py      :     0.004385
      dz2     :     0.022915  d :     0.026779
      dxz     :    -0.000322
      dyz     :     0.000273
      dx2y2   :     0.005205
      dxy     :    -0.001293
      f0      :     0.000004  f :    -0.000002
      f+1     :     0.000000
      f-1     :    -0.000005
      f+2     :    -0.000000
      f-2     :     0.000000
      f+3     :    -0.000001
      f-3     :     0.000000
      g0      :     0.000000  g :     0.000000
      g+1     :    -0.000000
      g-1     :    -0.000000
      g+2     :     0.000000
      g-2     :     0.000000
      g+3     :    -0.000000
      g-3     :     0.000000
      g+4     :     0.000000
      g-4     :     0.000000
  1 Cus       :     0.006266  s :     0.006266
      pz      :     0.012415  p :     0.016814
      px      :     0.003292
      py      :     0.001106
      dz2     :     0.022925  d :     0.026815
      dxz     :     0.000125
      dyz     :    -0.000174
      dx2y2   :     0.000339
      dxy     :     0.003600
      f0      :     0.000004  f :    -0.000002
      f+1     :    -0.000004
      f-1     :    -0.000001
      f+2     :    -0.000000
      f-2     :    -0.000000
      f+3     :    -0.000001
      f-3     :     0.000000
      g0      :     0.000000  g :     0.000000
      g+1     :    -0.000000
      g-1     :    -0.000000
      g+2     :     0.000000
      g-2     :     0.000000
      g+3     :    -0.000000
      g-3     :     0.000000
      g+4     :     0.000000
      g-4     :     0.000000
  2 Cus       :     0.006266  s :     0.006266
      pz      :     0.012415  p :     0.016814
      px      :     0.003292
      py      :     0.001106
      dz2     :     0.022925  d :     0.026815
      dxz     :     0.000125
      dyz     :    -0.000174
      dx2y2   :     0.000339
      dxy     :     0.003600
      f0      :     0.000004  f :    -0.000002
      f+1     :    -0.000004
      f-1     :    -0.000001
      f+2     :    -0.000000
      f-2     :    -0.000000
      f+3     :    -0.000001
      f-3     :     0.000000
      g0      :     0.000000  g :     0.000000
      g+1     :    -0.000000
      g-1     :    -0.000000
      g+2     :     0.000000
      g-2     :     0.000000
      g+3     :    -0.000000
      g-3     :     0.000000
      g+4     :     0.000000
      g-4     :     0.000000
  3 Cus       :     0.087973  s :     0.087973
      pz      :     0.155144  p :     0.155969
      px      :     0.000412
      py      :     0.000413
      dz2     :     0.201272  d :     0.205960
      dxz     :     0.002088
      dyz     :     0.002086
      dx2y2   :     0.000257
      dxy     :     0.000257
      f0      :     0.000381  f :     0.000371
      f+1     :    -0.000003
      f-1     :    -0.000003
      f+2     :    -0.000002
      f-2     :    -0.000002
      f+3     :     0.000000
      f-3     :     0.000001
      g0      :     0.000002  g :     0.000003
      g+1     :     0.000000
      g-1     :     0.000000
      g+2     :    -0.000000
      g-2     :    -0.000000
      g+3     :    -0.000000
      g-3     :     0.000000
      g+4     :     0.000000
      g-4     :     0.000000
  4 H s       :     0.392591  s :     0.392591
      pz      :     0.004194  p :     0.007473
      px      :     0.001639
      py      :     0.001639
      dz2     :    -0.000210  d :     0.000017
      dxz     :     0.000101
      dyz     :     0.000101
      dx2y2   :     0.000013
      dxy     :     0.000013


                      *****************************
                      * MAYER POPULATION ANALYSIS *
                      *****************************

  NA   - Mulliken gross atomic population
  ZA   - Total nuclear charge
  QA   - Mulliken gross atomic charge
  VA   - Mayer's total valence
  BVA  - Mayer's bonded valence
  FA   - Mayer's free valence

  ATOM       NA         ZA         QA         VA         BVA        FA
  0 Cu    28.4299    29.0000     0.5701     1.2338     1.2311     0.0028
  1 Cu    28.4299    29.0000     0.5701     1.2336     1.2309     0.0028
  2 Cu    28.4299    29.0000     0.5701     1.2336     1.2309     0.0028
  3 Cu    29.3022    29.0000    -0.3022     0.8458     0.4889     0.3569
  4 H      0.4081     1.0000     0.5919     0.2718     0.1091     0.1627

  Mayer bond orders larger than 0.100000
B(  0-Cu,  1-Cu) :   0.4088 B(  0-Cu,  2-Cu) :   0.4088 B(  0-Cu,  3-Cu) :   0.2700 
B(  0-Cu,  4-H ) :   0.1434 B(  1-Cu,  2-Cu) :   0.4086 B(  1-Cu,  3-Cu) :   0.2700 
B(  1-Cu,  4-H ) :   0.1434 B(  2-Cu,  3-Cu) :   0.2700 B(  2-Cu,  4-H ) :   0.1434 
B(  3-Cu,  4-H ) :  -0.3211 

-------
TIMINGS
-------

Total SCF time: 0 days 0 hours 0 min 5 sec 

Total time                  ....       5.276 sec
Sum of individual times     ....       5.017 sec  ( 95.1%)

Fock matrix formation       ....       3.914 sec  ( 74.2%)
  Split-RI-J                ....       1.835 sec  ( 46.9% of F)
  XC integration            ....       1.859 sec  ( 47.5% of F)
    Basis function eval.    ....       0.101 sec  (  5.5% of XC)
    Density eval.           ....       0.336 sec  ( 18.1% of XC)
    XC-Functional eval.     ....       0.056 sec  (  3.0% of XC)
    XC-Potential eval.      ....       0.731 sec  ( 39.3% of XC)
Diagonalization             ....       0.425 sec  (  8.1%)
Density matrix formation    ....       0.037 sec  (  0.7%)
Population analysis         ....       0.026 sec  (  0.5%)
Initial guess               ....       0.126 sec  (  2.4%)
Orbital Transformation      ....       0.000 sec  (  0.0%)
Orbital Orthonormalization  ....       0.000 sec  (  0.0%)
DIIS solution               ....       0.169 sec  (  3.2%)
Grid generation             ....       0.321 sec  (  6.1%)


-------------------------------------------------------------------------------
                          DFT DISPERSION CORRECTION                            
                                                                               
                              DFTD3 V3.1  Rev 1                                
                          USING Becke-Johnson damping                          
-------------------------------------------------------------------------------
The TPSS functional is recognized
Active option DFTDOPT                   ...         4   

molecular C6(AA) [au] = 2983.569509 


            DFT-D V3
 parameters
 s6 scaling factor         :     1.0000 
 a1 scaling factor         :     0.4535 
 s8 scaling factor         :     1.9435 
 a2 scaling factor         :     4.4752 
 ad hoc parameters k1-k3   :    16.0000     1.3333    -4.0000 

 Edisp/kcal,au: -5.763777129982  -0.009185162541 
 E6   /kcal   :  -1.885045759 
 E8   /kcal   :  -3.878731371 
 % E8         :  67.294957517 

-------------------------   ----------------
Dispersion correction           -0.009185163
-------------------------   ----------------


-------------------------   --------------------
FINAL SINGLE POINT ENERGY     -6562.189350725140
-------------------------   --------------------


                            ***************************************
                            *     ORCA property calculations      *
                            ***************************************

                                    ---------------------
                                    Active property flags
                                    ---------------------
   (+) Dipole Moment


------------------------------------------------------------------------------
                       ORCA ELECTRIC PROPERTIES CALCULATION
------------------------------------------------------------------------------

Dipole Moment Calculation                       ... on
Quadrupole Moment Calculation                   ... off
Polarizability Calculation                      ... off
GBWName                                         ... Cu04C2_H_A.gbw
Electron density file                           ... Cu04C2_H_A.scfp
The origin for moment calculation is the CENTER OF MASS  = ( 0.000000,  0.000000 -0.026728)

-------------
DIPOLE MOMENT
-------------
                                X             Y             Z
Electronic contribution:      0.00000       0.00006      -3.39663
Nuclear contribution   :      0.00000       0.00000       3.12710
                        -----------------------------------------
Total Dipole Moment    :      0.00000       0.00006      -0.26953
                        -----------------------------------------
Magnitude (a.u.)       :      0.26953
Magnitude (Debye)      :      0.68509



--------------------
Rotational spectrum 
--------------------
 
Rotational constants in cm-1:     0.044993     0.041927     0.041927 
Rotational constants in MHz :  1348.855174  1256.945404  1256.945373 

 Dipole components along the rotational axes: 
x,y,z [a.u.] :    -0.269531     0.000064     0.000000 
x,y,z [Debye]:    -0.685094     0.000162     0.000000 

 

Timings for individual modules:

Sum of individual times         ...        6.310 sec (=   0.105 min)
GTO integral calculation        ...        0.717 sec (=   0.012 min)  11.4 %
SCF iterations                  ...        5.593 sec (=   0.093 min)  88.6 %
                             ****ORCA TERMINATED NORMALLY****
TOTAL RUN TIME: 0 days 0 hours 0 minutes 6 seconds 813 msec
