Too many bad steps.
Optimizer: Optimization complete!
 3 displacements needed.
 1 2 3
At level 1: Red. Int., RFO, no backsteps, dynamic trust
At level 1: Red. Int., RFO, no backsteps, dynamic trust
At level 1: Red. Int., RFO, no backsteps, dynamic trust
At level 1: Red. Int., RFO, no backsteps, dynamic trust
At level 1: Red. Int., RFO, no backsteps, dynamic trust
At level 2: Red. Int., RFO, backsteps, smaller trust.
. F. Gonthier, A. M. James,
    H. R. McAlexander, A. Kumar, M. Saitow, X. Wang, B. P. Pritchard,
    P. Verma, H. F. Schaefer III, K. Patkowski, R. A. King, E. F. Valeev,
    F. A. Evangelista, J. M. Turney, T. D. Crawford, and C. D. Sherrill,
    J. Chem. Theory Comput. 13(7) pp 3185--3197 (2017).
    (doi: 10.1021/acs.jctc.7b00174)


                         Additional Contributions by
    P. Kraus, H. Kruse, M. H. Lechner, M. C. Schieber, R. A. Shaw,
    A. Alenaizan, R. Galvelis, Z. L. Glick, S. Lehtola, and J. P. Misiewicz

    -----------------------------------------------------------------------


    Psi4 started on: Friday, 29 October 2021 07:53AM

    Process ID: 129434
    Host:       bp1-compute00157.data.bp.acrc.priv
    PSIDATADIR: /work/zw18965/.conda/envs/p4env/share/psi4
    Memory:     500.0 MiB
    Threads:    24
    
  ==> Input File <==

--------------------------------------------------------------------------
memory 144 GB

molecule {
0 1
Ag       0.000000    0.000000    0.033547 
H        0.000000    0.000000   -1.576706 
 }

set dynamic_level 1
set basis Def2-TZVPPD

optimize("GAM")
frequencies("GAM")
--------------------------------------------------------------------------

  Memory set to 134.110 GiB by Python driver.
gradient() will perform analytic gradient computation.

*** tstart() called on bp1-compute00157.data.bp.acrc.priv
*** at Fri Oct 29 07:53:14 2021

   => Loading Basis Set <=

    Name: DEF2-TZVPPD
    Role: ORBITAL
    Keyword: BASIS
    atoms 1 entry AG         line  2174 (ECP: line  3646) file /work/zw18965/.conda/envs/p4env/share/psi4/basis/def2-tzvppd.gbs 
    atoms 2 entry H          line    14 file /work/zw18965/.conda/envs/p4env/share/psi4/basis/def2-tzvppd.gbs 

    !!!  WARNING: ECP capability is in beta. Please check occupations closely.  !!!


         ---------------------------------------------------------
                                   SCF
               by Justin Turney, Rob Parrish, Andy Simmonett
                          and Daniel G. A. Smith
                              RKS Reference
                       24 Threads, 137329 MiB Core
         ---------------------------------------------------------

  ==> Geometry <==

    Molecular point group: c2v
    Full point group: C_inf_v

    Geometry (in Angstrom), charge = 0, multiplicity = 1:

       Center              X                  Y                   Z               Mass       
    ------------   -----------------  -----------------  -----------------  -----------------
         AG           0.000000000000     0.000000000000     0.015038545267   106.905091600000
         H            0.000000000000     0.000000000000    -1.595214454733     1.007825032230

  Running in c2v symmetry.

  Rotational constants: A = ************  B =      6.51176  C =      6.51176 [cm^-1]
  Rotational constants: A = ************  B = 195217.55314  C = 195217.55314 [MHz]
  Nuclear repulsion =    6.243967254046415

  Charge       = 0
  Multiplicity = 1
  Electrons    = 20
  Nalpha       = 10
  Nbeta        = 10

  ==> Algorithm <==

  SCF Algorithm Type is DF.
  DIIS enabled.
  MOM disabled.
  Fractional occupation disabled.
  Guess Type is SAD.
  Energy threshold   = 1.00e-08
  Density threshold  = 1.00e-08
  Integral threshold = 0.00e+00

  ==> Primary Basis <==

  Basis Set: DEF2-TZVPPD
    Blend: DEF2-TZVPPD
    Number of shells: 23
    Number of basis function: 73
    Number of Cartesian functions: 89
    Spherical Harmonics?: true
    Max angular momentum: 4

  Core potential: DEF2-TZVPPD
    Number of shells: 4
    Number of ECP primitives: 14
    Number of ECP core electrons: 28
    Max angular momentum: 3

  ==> DFT Potential <==

   => Composite Functional: GAM <= 

   GAM GGA Minessota Exchange-Correlation Functional

    H.S. Yu, et al., Phys. Chem. Chem. Phys. 17, 12146, 2015


    Deriv               =              1
    GGA                 =           TRUE
    Meta                =          FALSE

    Exchange Hybrid     =          FALSE
    MP2 Hybrid          =          FALSE

   => Exchange Functionals <=

    1.0000     XC_GGA_X_GAM

   => Correlation Functionals <=

    1.0000     XC_GGA_C_GAM

   => Molecular Quadrature <=

    Radial Scheme          =       TREUTLER
    Pruning Scheme         =           FLAT
    Nuclear Scheme         =       TREUTLER

    BS radius alpha        =              1
    Pruning alpha          =              1
    Radial Points          =             75
    Spherical Points       =            302
    Total Points           =          45039
    Total Blocks           =            422
    Max Points             =            256
    Max Functions          =             73

   => Loading Basis Set <=

    Name: (DEF2-TZVPPD AUX)
    Role: JKFIT
    Keyword: DF_BASIS_SCF
    atoms 1 entry AG         line  4369 file /work/zw18965/.conda/envs/p4env/share/psi4/basis/def2-tzvpp-jkfit.gbs 
    atoms 2 entry H          line    23 file /work/zw18965/.conda/envs/p4env/share/psi4/basis/def2-tzvpp-jkfit.gbs 

  ==> Pre-Iterations <==

   -------------------------------------------------------
    Irrep   Nso     Nmo     Nalpha   Nbeta   Ndocc  Nsocc
   -------------------------------------------------------
     A1        31      31       0       0       0       0
     A2         8       8       0       0       0       0
     B1        17      17       0       0       0       0
     B2        17      17       0       0       0       0
   -------------------------------------------------------
    Total      73      73      10      10      10       0
   -------------------------------------------------------

  ==> Integral Setup <==

  DFHelper Memory: AOs need 0.014 GiB; user supplied 100.496 GiB. Using in-core AOs.

  ==> MemDFJK: Density-Fitted J/K Matrices <==

    J tasked:                   Yes
    K tasked:                    No
    wK tasked:                   No
    OpenMP threads:              24
    Memory [MiB]:            102908
    Algorithm:                 Core
    Schwarz Cutoff:           1E-12
    Mask sparsity (%):       0.0000
    Fitting Condition:        1E-10

   => Auxiliary Basis Set <=

  Basis Set: (DEF2-TZVPPD AUX)
    Blend: DEF2-TZVPP-JKFIT
    Number of shells: 55
    Number of basis function: 273
    Number of Cartesian functions: 404
    Spherical Harmonics?: true
    Max angular momentum: 6

  Cached 100.0% of DFT collocation blocks in 0.086 [GiB].

  Minimum eigenvalue in the overlap matrix is 3.3162039647E-03.
  Using Symmetric Orthogonalization.

  SCF Guess: Superposition of Atomic Densities via on-the-fly atomic UHF.

  ==> Iterations <==

                           Total Energy        Delta E     RMS |[F,P]|

   @DF-RKS iter SAD:  -147.88318309071943   -1.47883e+02   0.00000e+00 
   @DF-RKS iter   1:  -148.09161169326126   -2.08429e-01   7.91280e-03 DIIS
   @DF-RKS iter   2:  -147.82196833929649    2.69643e-01   1.82459e-02 DIIS
   @DF-RKS iter   3:  -148.15027226902646   -3.28304e-01   2.06021e-03 DIIS
   @DF-RKS iter   4:  -148.15172031729810   -1.44805e-03   1.38238e-03 DIIS
   @DF-RKS iter   5:  -148.15245022816055   -7.29911e-04   3.65396e-04 DIIS
   @DF-RKS iter   6:  -148.15262893725568   -1.78709e-04   6.23952e-05 DIIS
   @DF-RKS iter   7:  -148.15263429087270   -5.35362e-06   1.30959e-05 DIIS
   @DF-RKS iter   8:  -148.15263442468029   -1.33808e-07   1.73993e-06 DIIS
   @DF-RKS iter   9:  -148.15263442803769   -3.35740e-09   2.34951e-07 DIIS
   @DF-RKS iter  10:  -148.15263442808276   -4.50768e-11   2.35237e-08 DIIS
   @DF-RKS iter  11:  -148.15263442808350   -7.38964e-13   1.47680e-09 DIIS
  Energy and wave function converged.


  ==> Post-Iterations <==

    Orbital Energies [Eh]
    ---------------------

    Doubly Occupied:                                                      

       1A1    -3.595522     2A1    -2.231270     1B1    -2.222202  
       1B2    -2.222202     3A1    -0.343599     2B1    -0.291795  
       2B2    -0.291795     1A2    -0.283431     4A1    -0.283430  
       5A1    -0.211813  

    Virtual:                                                              

       6A1    -0.101449     3B1    -0.019751     3B2    -0.019751  
       7A1     0.066525     8A1     0.089514     9A1     0.155009  
       4B1     0.160121     4B2     0.160121     5B1     0.198693  
       5B2     0.198693    10A1     0.360600     2A2     0.376556  
      11A1     0.376556    12A1     0.409445     6B1     0.487014  
       6B2     0.487014    13A1     0.554233     7B1     0.822776  
       7B2     0.822776    14A1     1.022053    15A1     1.516262  
       3A2     1.516263     8B2     1.527242     8B1     1.527242  
       9B1     1.549065     9B2     1.549065    10B1     1.592819  
      10B2     1.592819    16A1     1.611268    17A1     1.781864  
      18A1     1.946713     4A2     1.965663    19A1     1.965664  
      11B1     2.028164    11B2     2.028164    20A1     2.149132  
      21A1     2.557597    22A1     3.165695     5A2     3.165712  
      12B1     3.364148    12B2     3.364148    13B1     3.783929  
      13B2     3.783929    23A1     3.821865    24A1     4.432823  
      14B2     4.663927    14B1     4.663927    25A1     4.676482  
       6A2     4.676488    15B1     4.856185    15B2     4.856185  
      26A1     5.063030    16B2     5.410404    16B1     5.410404  
      27A1     5.412739     7A2     5.412746     8A2     5.414444  
      28A1     5.414468    17B1     5.545762    17B2     5.545762  
      29A1     6.001826    30A1    33.507434    31A1   110.819289  

    Final Occupation by Irrep:
             A1    A2    B1    B2 
    DOCC [     5,    1,    2,    2 ]

  @DF-RKS Final Energy:  -148.15263442808350

   => Energetics <=

    Nuclear Repulsion Energy =              6.2439672540464146
    One-Electron Energy =                -274.4429403215426646
    Two-Electron Energy =                 135.1794702984188064
    DFT Exchange-Correlation Energy =     -15.1331316590060538
    Empirical Dispersion Energy =           0.0000000000000000
    VV10 Nonlocal Energy =                  0.0000000000000000
    Total Energy =                       -148.1526344280835019

Computation Completed


Properties will be evaluated at   0.000000,   0.000000,   0.000000 [a0]

Properties computed using the SCF density matrix

  Nuclear Dipole Moment: [e a0]
     X:     0.0000      Y:     0.0000      Z:    -2.4746

  Electronic Dipole Moment: [e a0]
     X:     0.0000      Y:     0.0000      Z:     3.4787

  Dipole Moment: [e a0]
     X:     0.0000      Y:     0.0000      Z:     1.0042     Total:     1.0042

  Dipole Moment: [D]
     X:     0.0000      Y:     0.0000      Z:     2.5523     Total:     2.5523


*** tstop() called on bp1-compute00157.data.bp.acrc.priv at Fri Oct 29 07:53:18 2021
Module time:
	user time   =      48.69 seconds =       0.81 minutes
	system time =       2.34 seconds =       0.04 minutes
	total time  =          4 seconds =       0.07 minutes
Total time:
	user time   =      48.69 seconds =       0.81 minutes
	system time =       2.34 seconds =       0.04 minutes
	total time  =          4 seconds =       0.07 minutes

*** tstart() called on bp1-compute00157.data.bp.acrc.priv
*** at Fri Oct 29 07:53:18 2021


         ------------------------------------------------------------
                                   SCF GRAD                          
                          Rob Parrish, Justin Turney,                
                       Andy Simmonett, and Alex Sokolov              
         ------------------------------------------------------------

  ==> Geometry <==

    Molecular point group: c2v
    Full point group: C_inf_v

    Geometry (in Angstrom), charge = 0, multiplicity = 1:

       Center              X                  Y                   Z               Mass       
    ------------   -----------------  -----------------  -----------------  -----------------
         AG           0.000000000000     0.000000000000     0.015038545267   106.905091600000
         H            0.000000000000     0.000000000000    -1.595214454733     1.007825032230

  Nuclear repulsion =    6.243967254046415

  ==> Basis Set <==

  Basis Set: DEF2-TZVPPD
    Blend: DEF2-TZVPPD
    Number of shells: 23
    Number of basis function: 73
    Number of Cartesian functions: 89
    Spherical Harmonics?: true
    Max angular momentum: 4

  Core potential: DEF2-TZVPPD
    Number of shells: 4
    Number of ECP primitives: 14
    Number of ECP core electrons: 28
    Max angular momentum: 3

  ==> DFJKGrad: Density-Fitted SCF Gradients <==

    Gradient:                    1
    J tasked:                  Yes
    K tasked:                   No
    wK tasked:                  No
    OpenMP threads:             24
    Integrals threads:          24
    Memory [MiB]:           102996
    Schwarz Cutoff:          0E+00
    Fitting Condition:       1E-10

   => Auxiliary Basis Set <=

  Basis Set: (DEF2-TZVPPD AUX)
    Blend: DEF2-TZVPP-JKFIT
    Number of shells: 55
    Number of basis function: 273
    Number of Cartesian functions: 404
    Spherical Harmonics?: true
    Max angular momentum: 6

  ==> DFT Potential <==

   => Composite Functional: GAM <= 

   GAM GGA Minessota Exchange-Correlation Functional

    H.S. Yu, et al., Phys. Chem. Chem. Phys. 17, 12146, 2015


    Deriv               =              1
    GGA                 =           TRUE
    Meta                =          FALSE

    Exchange Hybrid     =          FALSE
    MP2 Hybrid          =          FALSE

   => Exchange Functionals <=

    1.0000     XC_GGA_X_GAM

   => Correlation Functionals <=

    1.0000     XC_GGA_C_GAM

   => Molecular Quadrature <=

    Radial Scheme          =       TREUTLER
    Pruning Scheme         =           FLAT
    Nuclear Scheme         =       TREUTLER

    BS radius alpha        =              1
    Pruning alpha          =              1
    Radial Points          =             75
    Spherical Points       =            302
    Total Points           =          45039
    Total Blocks           =            422
    Max Points             =            256
    Max Functions          =             73


  -Total Gradient:
     Atom            X                  Y                   Z
    ------   -----------------  -----------------  -----------------
       1        0.000000000000     0.000000000000    -0.105418471132
       2       -0.000000000000     0.000000000000     0.104416422335


*** tstop() called on bp1-compute00157.data.bp.acrc.priv at Fri Oct 29 07:53:23 2021
Module time:
	user time   =      31.64 seconds =       0.53 minutes
	system time =       2.86 seconds =       0.05 minutes
	total time  =          5 seconds =       0.08 minutes
Total time:
	user time   =      80.35 seconds =       1.34 minutes
	system time =       5.20 seconds =       0.09 minutes
	total time  =          9 seconds =       0.15 minutes


  ==> Adding ECP gradient terms (computed numerically) <==

  -ECP Gradient:
     Atom            X                  Y                   Z
    ------   -----------------  -----------------  -----------------
       1        0.000000000000    -0.000000000000     0.100259704340
       2        0.000000000000    -0.000000000000    -0.100259704352


  -Total Gradient:
     Atom            X                  Y                   Z
    ------   -----------------  -----------------  -----------------
       1        0.000000000000    -0.000000000000    -0.005158766792
       2        0.000000000000    -0.000000000000     0.004156717983


			-----------------------------------------
			 OPTKING 2.0: for geometry optimizations 
			  - R.A. King,  Bethel University        
			-----------------------------------------
	At level 1: Red. Int., RFO, no backsteps, dynamic trust

	Internal coordinates to be generated automatically.
	Detected frag 1 with atoms:  1 2
	---Fragment 1 Bond Connectivity---
	 1 : 2
	 2 : 1

	---Fragment 1 Geometry and Gradient---
	 AG          0.0000000000        0.0000000000        0.0284187319
	 H           0.0000000000        0.0000000000       -3.0145184308
	             0.0000000000       -0.0000000000       -0.0051587668
	             0.0000000000       -0.0000000000        0.0041567180

	Previous optimization step data not found.  Starting new optimization.

	---Fragment 1 Intrafragment Coordinates---
	 - Coordinate -           - BOHR/RAD -       - ANG/DEG -
	 R(1,2)           =         3.042937	       1.610253

	Current energy   :      -148.1526344281

	Generating empirical Hessian (Schlegel '84) for each fragment.
	Taking RFO optimization step.
	Going to follow RFO solution 1.
	Using RFO vector 1.
	Norm of target step-size    0.00249
	Projected energy change by RFO approximation:        -0.0000084959

	Back-transformation to cartesian coordinates...
	Successfully converged to displaced geometry.

	--- Internal Coordinate Step in ANG or DEG, aJ/ANG or AJ/DEG ---
	 ---------------------------------------------------------------------------
	   Coordinate                Previous        Force       Change         New 
	   ----------                --------       ------       ------       ------
	    1 R(1,2)          =      1.610253     0.038374     0.001317     1.611570
	 ---------------------------------------------------------------------------
	Successfully symmetrized geometry.

  ==> Convergence Check <==

  Measures of convergence in internal coordinates in au.
  Criteria marked as inactive (o), active & met (*), and active & unmet ( ).
  --------------------------------------------------------------------------------------------- ~
   Step     Total Energy     Delta E     MAX Force     RMS Force      MAX Disp      RMS Disp    ~
  --------------------------------------------------------------------------------------------- ~
    Convergence Criteria    1.00e-06 *    3.00e-04 *             o    1.20e-03 *             o  ~
  --------------------------------------------------------------------------------------------- ~
      1    -148.15263443   -1.48e+02      4.66e-03      4.66e-03 o    2.49e-03      2.49e-03 o  ~
  ---------------------------------------------------------------------------------------------

	Writing optimization data to binary file.
	Structure for next step:
	Cartesian Geometry (in Angstrom)
	   AG     0.0000000000   0.0000000000   0.0156971497
	    H     0.0000000000   0.0000000000  -1.5958730530
			--------------------------
			 OPTKING Finished Execution 
			--------------------------

    Structure for next step:
    Molecular point group: c2v
    Full point group: C_inf_v

    Geometry (in Angstrom), charge = 0, multiplicity = 1:

    AG           0.000000000000     0.000000000000     0.015050847002
    H            0.000000000000     0.000000000000    -1.596519361996

gradient() will perform analytic gradient computation.

*** tstart() called on bp1-compute00157.data.bp.acrc.priv
*** at Fri Oct 29 07:53:48 2021

   => Loading Basis Set <=

    Name: DEF2-TZVPPD
    Role: ORBITAL
    Keyword: BASIS
    atoms 1 entry AG         line  2174 (ECP: line  3646) file /work/zw18965/.conda/envs/p4env/share/psi4/basis/def2-tzvppd.gbs 
    atoms 2 entry H          line    14 file /work/zw18965/.conda/envs/p4env/share/psi4/basis/def2-tzvppd.gbs 

    !!!  WARNING: ECP capability is in beta. Please check occupations closely.  !!!


         ---------------------------------------------------------
                                   SCF
               by Justin Turney, Rob Parrish, Andy Simmonett
                          and Daniel G. A. Smith
                              RKS Reference
                       24 Threads, 137329 MiB Core
         ---------------------------------------------------------

  ==> Geometry <==

    Molecular point group: c2v
    Full point group: C_inf_v

    Geometry (in Angstrom), charge = 0, multiplicity = 1:

       Center              X                  Y                   Z               Mass       
    ------------   -----------------  -----------------  -----------------  -----------------
         AG           0.000000000000     0.000000000000     0.015050847002   106.905091600000
         H            0.000000000000     0.000000000000    -1.596519361996     1.007825032230

  Running in c2v symmetry.

  Rotational constants: A = ************  B =      6.50112  C =      6.50112 [cm^-1]
  Rotational constants: A = ************  B = 194898.56334  C = 194898.56334 [MHz]
  Nuclear repulsion =    6.238863778064658

  Charge       = 0
  Multiplicity = 1
  Electrons    = 20
  Nalpha       = 10
  Nbeta        = 10

  ==> Algorithm <==

  SCF Algorithm Type is DF.
  DIIS enabled.
  MOM disabled.
  Fractional occupation disabled.
  Guess Type is READ.
  Energy threshold   = 1.00e-08
  Density threshold  = 1.00e-08
  Integral threshold = 0.00e+00

  ==> Primary Basis <==

  Basis Set: DEF2-TZVPPD
    Blend: DEF2-TZVPPD
    Number of shells: 23
    Number of basis function: 73
    Number of Cartesian functions: 89
    Spherical Harmonics?: true
    Max angular momentum: 4

  Core potential: DEF2-TZVPPD
    Number of shells: 4
    Number of ECP primitives: 14
    Number of ECP core electrons: 28
    Max angular momentum: 3

  ==> DFT Potential <==

   => Composite Functional: GAM <= 

   GAM GGA Minessota Exchange-Correlation Functional

    H.S. Yu, et al., Phys. Chem. Chem. Phys. 17, 12146, 2015


    Deriv               =              1
    GGA                 =           TRUE
    Meta                =          FALSE

    Exchange Hybrid     =          FALSE
    MP2 Hybrid          =          FALSE

   => Exchange Functionals <=

    1.0000     XC_GGA_X_GAM

   => Correlation Functionals <=

    1.0000     XC_GGA_C_GAM

   => Molecular Quadrature <=

    Radial Scheme          =       TREUTLER
    Pruning Scheme         =           FLAT
    Nuclear Scheme         =       TREUTLER

    BS radius alpha        =              1
    Pruning alpha          =              1
    Radial Points          =             75
    Spherical Points       =            302
    Total Points           =          45039
    Total Blocks           =            422
    Max Points             =            256
    Max Functions          =             73

   => Loading Basis Set <=

    Name: (DEF2-TZVPPD AUX)
    Role: JKFIT
    Keyword: DF_BASIS_SCF
    atoms 1 entry AG         line  4369 file /work/zw18965/.conda/envs/p4env/share/psi4/basis/def2-tzvpp-jkfit.gbs 
    atoms 2 entry H          line    23 file /work/zw18965/.conda/envs/p4env/share/psi4/basis/def2-tzvpp-jkfit.gbs 

   => Loading Basis Set <=

    Name: DEF2-TZVPPD
    Role: ORBITAL
    Keyword: BASIS
    atoms 1 entry AG         line  2174 (ECP: line  3646) file /work/zw18965/.conda/envs/p4env/share/psi4/basis/def2-tzvppd.gbs 
    atoms 2 entry H          line    14 file /work/zw18965/.conda/envs/p4env/share/psi4/basis/def2-tzvppd.gbs 

    !!!  WARNING: ECP capability is in beta. Please check occupations closely.  !!!

  Reading orbitals from file 180, no projection.

  ==> Pre-Iterations <==

   -------------------------------------------------------
    Irrep   Nso     Nmo     Nalpha   Nbeta   Ndocc  Nsocc
   -------------------------------------------------------
     A1        31      31       0       0       0       0
     A2         8       8       0       0       0       0
     B1        17      17       0       0       0       0
     B2        17      17       0       0       0       0
   -------------------------------------------------------
    Total      73      73      10      10      10       0
   -------------------------------------------------------

  ==> Integral Setup <==

  DFHelper Memory: AOs need 0.014 GiB; user supplied 100.496 GiB. Using in-core AOs.

  ==> MemDFJK: Density-Fitted J/K Matrices <==

    J tasked:                   Yes
    K tasked:                    No
    wK tasked:                   No
    OpenMP threads:              24
    Memory [MiB]:            102908
    Algorithm:                 Core
    Schwarz Cutoff:           1E-12
    Mask sparsity (%):       0.0000
    Fitting Condition:        1E-10

   => Auxiliary Basis Set <=

  Basis Set: (DEF2-TZVPPD AUX)
    Blend: DEF2-TZVPP-JKFIT
    Number of shells: 55
    Number of basis function: 273
    Number of Cartesian functions: 404
    Spherical Harmonics?: true
    Max angular momentum: 6

  Cached 100.0% of DFT collocation blocks in 0.086 [GiB].

  Minimum eigenvalue in the overlap matrix is 3.3331731216E-03.
  Using Symmetric Orthogonalization.

  SCF Guess: Orbitals guess was supplied from a previous computation.

  ==> Iterations <==

                           Total Energy        Delta E     RMS |[F,P]|

   @DF-RKS iter   0:  -148.15243429011718   -1.48152e+02   4.84535e-05 
   @DF-RKS iter   1:  -148.15264416476836   -2.09875e-04   1.22566e-05 DIIS
   @DF-RKS iter   2:  -148.15264382828684    3.36482e-07   2.46968e-05 DIIS
   @DF-RKS iter   3:  -148.15264429537712   -4.67090e-07   1.47164e-06 DIIS
   @DF-RKS iter   4:  -148.15264429584442   -4.67310e-10   1.03171e-06 DIIS
   @DF-RKS iter   5:  -148.15264429665510   -8.10672e-10   8.74532e-08 DIIS
   @DF-RKS iter   6:  -148.15264429665834   -3.24007e-12   2.88736e-08 DIIS
   @DF-RKS iter   7:  -148.15264429665962   -1.27898e-12   4.30352e-09 DIIS
  Energy and wave function converged.


  ==> Post-Iterations <==

    Orbital Energies [Eh]
    ---------------------

    Doubly Occupied:                                                      

       1A1    -3.595470     2A1    -2.231192     1B1    -2.222163  
       1B2    -2.222163     3A1    -0.343378     2B2    -0.291740  
       2B1    -0.291740     1A2    -0.283408     4A1    -0.283407  
       5A1    -0.211828  

    Virtual:                                                              

       6A1    -0.101505     3B1    -0.019748     3B2    -0.019748  
       7A1     0.066535     8A1     0.089441     9A1     0.154972  
       4B1     0.160115     4B2     0.160115     5B1     0.198660  
       5B2     0.198660    10A1     0.360404     2A2     0.376559  
      11A1     0.376559    12A1     0.409509     6B1     0.486931  
       6B2     0.486931    13A1     0.554101     7B2     0.822816  
       7B1     0.822816    14A1     1.021780    15A1     1.516328  
       3A2     1.516329     8B2     1.527253     8B1     1.527253  
       9B2     1.549008     9B1     1.549008    10B1     1.592599  
      10B2     1.592599    16A1     1.611281    17A1     1.781341  
      18A1     1.947200     4A2     1.965685    19A1     1.965686  
      11B2     2.028046    11B1     2.028046    20A1     2.147951  
      21A1     2.557500    22A1     3.165790     5A2     3.165808  
      12B2     3.363329    12B1     3.363329    13B2     3.783793  
      13B1     3.783793    23A1     3.820811    24A1     4.430510  
      14B2     4.663958    14B1     4.663958    25A1     4.676403  
       6A2     4.676410    15B1     4.855820    15B2     4.855820  
      26A1     5.063254    16B1     5.410437    16B2     5.410437  
      27A1     5.412706     7A2     5.412713     8A2     5.414462  
      28A1     5.414486    17B2     5.544559    17B1     5.544559  
      29A1     5.999078    30A1    33.506036    31A1   110.818918  

    Final Occupation by Irrep:
             A1    A2    B1    B2 
    DOCC [     5,    1,    2,    2 ]

  @DF-RKS Final Energy:  -148.15264429665962

   => Energetics <=

    Nuclear Repulsion Energy =              6.2388637780646583
    One-Electron Energy =                -274.4339604948011129
    Two-Electron Energy =                 135.1754805814109659
    DFT Exchange-Correlation Energy =     -15.1330281613341366
    Empirical Dispersion Energy =           0.0000000000000000
    VV10 Nonlocal Energy =                  0.0000000000000000
    Total Energy =                       -148.1526442966595880

Computation Completed


Properties will be evaluated at   0.000000,   0.000000,   0.000000 [a0]

Properties computed using the SCF density matrix

  Nuclear Dipole Moment: [e a0]
     X:     0.0000      Y:     0.0000      Z:    -2.4766

  Electronic Dipole Moment: [e a0]
     X:     0.0000      Y:     0.0000      Z:     3.4813

  Dipole Moment: [e a0]
     X:     0.0000      Y:     0.0000      Z:     1.0047     Total:     1.0047

  Dipole Moment: [D]
     X:     0.0000      Y:     0.0000      Z:     2.5538     Total:     2.5538


*** tstop() called on bp1-compute00157.data.bp.acrc.priv at Fri Oct 29 07:53:50 2021
Module time:
	user time   =      29.84 seconds =       0.50 minutes
	system time =       1.26 seconds =       0.02 minutes
	total time  =          2 seconds =       0.03 minutes
Total time:
	user time   =     358.13 seconds =       5.97 minutes
	system time =      18.27 seconds =       0.30 minutes
	total time  =         36 seconds =       0.60 minutes

*** tstart() called on bp1-compute00157.data.bp.acrc.priv
*** at Fri Oct 29 07:53:50 2021


         ------------------------------------------------------------
                                   SCF GRAD                          
                          Rob Parrish, Justin Turney,                
                       Andy Simmonett, and Alex Sokolov              
         ------------------------------------------------------------

  ==> Geometry <==

    Molecular point group: c2v
    Full point group: C_inf_v

    Geometry (in Angstrom), charge = 0, multiplicity = 1:

       Center              X                  Y                   Z               Mass       
    ------------   -----------------  -----------------  -----------------  -----------------
         AG           0.000000000000     0.000000000000     0.015050847002   106.905091600000
         H            0.000000000000     0.000000000000    -1.596519361996     1.007825032230

  Nuclear repulsion =    6.238863778064658

  ==> Basis Set <==

  Basis Set: DEF2-TZVPPD
    Blend: DEF2-TZVPPD
    Number of shells: 23
    Number of basis function: 73
    Number of Cartesian functions: 89
    Spherical Harmonics?: true
    Max angular momentum: 4

  Core potential: DEF2-TZVPPD
    Number of shells: 4
    Number of ECP primitives: 14
    Number of ECP core electrons: 28
    Max angular momentum: 3

  ==> DFJKGrad: Density-Fitted SCF Gradients <==

    Gradient:                    1
    J tasked:                  Yes
    K tasked:                   No
    wK tasked:                  No
    OpenMP threads:             24
    Integrals threads:          24
    Memory [MiB]:           102996
    Schwarz Cutoff:          0E+00
    Fitting Condition:       1E-10

   => Auxiliary Basis Set <=

  Basis Set: (DEF2-TZVPPD AUX)
    Blend: DEF2-TZVPP-JKFIT
    Number of shells: 55
    Number of basis function: 273
    Number of Cartesian functions: 404
    Spherical Harmonics?: true
    Max angular momentum: 6

  ==> DFT Potential <==

   => Composite Functional: GAM <= 

   GAM GGA Minessota Exchange-Correlation Functional

    H.S. Yu, et al., Phys. Chem. Chem. Phys. 17, 12146, 2015


    Deriv               =              1
    GGA                 =           TRUE
    Meta                =          FALSE

    Exchange Hybrid     =          FALSE
    MP2 Hybrid          =          FALSE

   => Exchange Functionals <=

    1.0000     XC_GGA_X_GAM

   => Correlation Functionals <=

    1.0000     XC_GGA_C_GAM

   => Molecular Quadrature <=

    Radial Scheme          =       TREUTLER
    Pruning Scheme         =           FLAT
    Nuclear Scheme         =       TREUTLER

    BS radius alpha        =              1
    Pruning alpha          =              1
    Radial Points          =             75
    Spherical Points       =            302
    Total Points           =          45039
    Total Blocks           =            422
    Max Points             =            256
    Max Functions          =             73


  -Total Gradient:
     Atom            X                  Y                   Z
    ------   -----------------  -----------------  -----------------
       1        0.000000000000    -0.000000000000    -0.104785952451
       2        0.000000000000     0.000000000000     0.103779341173


*** tstop() called on bp1-compute00157.data.bp.acrc.priv at Fri Oct 29 07:53:55 2021
Module time:
	user time   =      31.76 seconds =       0.53 minutes
	system time =       2.60 seconds =       0.04 minutes
	total time  =          5 seconds =       0.08 minutes
Total time:
	user time   =     389.91 seconds =       6.50 minutes
	system time =      20.88 seconds =       0.35 minutes
	total time  =         41 seconds =       0.68 minutes


  ==> Adding ECP gradient terms (computed numerically) <==

  -ECP Gradient:
     Atom            X                  Y                   Z
    ------   -----------------  -----------------  -----------------
       1        0.000000000000    -0.000000000000     0.099912784529
       2        0.000000000000    -0.000000000000    -0.099912784526


  -Total Gradient:
     Atom            X                  Y                   Z
    ------   -----------------  -----------------  -----------------
       1        0.000000000000    -0.000000000000    -0.004873167922
       2        0.000000000000    -0.000000000000     0.003866556648


			-----------------------------------------
			 OPTKING 2.0: for geometry optimizations 
			  - R.A. King,  Bethel University        
			-----------------------------------------
	At level 1: Red. Int., RFO, no backsteps, dynamic trust

	Previous internal coordinate definitions found.
	---Fragment 1 Geometry and Gradient---
	 AG          0.0000000000        0.0000000000        0.0284419788
	 H           0.0000000000        0.0000000000       -3.0169843482
	             0.0000000000       -0.0000000000       -0.0048731679
	             0.0000000000       -0.0000000000        0.0038665566

	---Fragment 1 Intrafragment Coordinates---
	 - Coordinate -           - BOHR/RAD -       - ANG/DEG -
	 R(1,2)           =         3.045426	       1.611570

	Current energy   :      -148.1526442967

	Energy change for the previous step:
		Projected    :        -0.0000084959
		Actual       :        -0.0000098686
	Energy ratio indicates good step: Trust radius increased to 1.000e+00.


	Performing BFGS update.
	Previous computed or guess Hessian on step 1.
	Steps to be used in Hessian update: 1
	Taking RFO optimization step.
	Going to follow RFO solution 1.
	Using RFO vector 1.
	Norm of target step-size    0.00502
	Projected energy change by RFO approximation:        -0.0000093390

	Back-transformation to cartesian coordinates...
	Successfully converged to displaced geometry.

	--- Internal Coordinate Step in ANG or DEG, aJ/ANG or AJ/DEG ---
	 ---------------------------------------------------------------------------
	   Coordinate                Previous        Force       Change         New 
	   ----------                --------       ------       ------       ------
	    1 R(1,2)          =      1.611570     0.036002     0.002654     1.614224
	 ---------------------------------------------------------------------------
	Successfully symmetrized geometry.

  ==> Convergence Check <==

  Measures of convergence in internal coordinates in au.
  Criteria marked as inactive (o), active & met (*), and active & unmet ( ).
  ---------------------------------------------------------------------------------------------
   Step     Total Energy     Delta E     MAX Force     RMS Force      MAX Disp      RMS Disp   
  ---------------------------------------------------------------------------------------------
    Convergence Criteria    1.00e-06 *    3.00e-04 *             o    1.20e-03 *             o
  ---------------------------------------------------------------------------------------------
      2    -148.15264430   -9.87e-06      4.37e-03      4.37e-03 o    5.02e-03      5.02e-03 o  ~
  ---------------------------------------------------------------------------------------------

	Writing optimization data to binary file.
	Structure for next step:
	Cartesian Geometry (in Angstrom)
	   AG     0.0000000000   0.0000000000   0.0163779731
	    H     0.0000000000   0.0000000000  -1.5978464819
			--------------------------
			 OPTKING Finished Execution 
			--------------------------

    Structure for next step:
    Molecular point group: c2v
    Full point group: C_inf_v

    Geometry (in Angstrom), charge = 0, multiplicity = 1:

    AG           0.000000000000     0.000000000000     0.015075635713
    H            0.000000000000     0.000000000000    -1.599148825688

gradient() will perform analytic gradient computation.

*** tstart() called on bp1-compute00157.data.bp.acrc.priv
*** at Fri Oct 29 07:54:19 2021

   => Loading Basis Set <=

    Name: DEF2-TZVPPD
    Role: ORBITAL
    Keyword: BASIS
    atoms 1 entry AG         line  2174 (ECP: line  3646) file /work/zw18965/.conda/envs/p4env/share/psi4/basis/def2-tzvppd.gbs 
    atoms 2 entry H          line    14 file /work/zw18965/.conda/envs/p4env/share/psi4/basis/def2-tzvppd.gbs 

    !!!  WARNING: ECP capability is in beta. Please check occupations closely.  !!!


         ---------------------------------------------------------
                                   SCF
               by Justin Turney, Rob Parrish, Andy Simmonett
                          and Daniel G. A. Smith
                              RKS Reference
                       24 Threads, 137329 MiB Core
         ---------------------------------------------------------

  ==> Geometry <==

    Molecular point group: c2v
    Full point group: C_inf_v

    Geometry (in Angstrom), charge = 0, multiplicity = 1:

       Center              X                  Y                   Z               Mass       
    ------------   -----------------  -----------------  -----------------  -----------------
         AG           0.000000000000     0.000000000000     0.015075635713   106.905091600000
         H            0.000000000000     0.000000000000    -1.599148825688     1.007825032230

  Running in c2v symmetry.

  Rotational constants: A = ************  B =      6.47975  C =      6.47975 [cm^-1]
  Rotational constants: A = ************  B = 194258.15095  C = 194258.15095 [MHz]
  Nuclear repulsion =    6.228605279593093

  Charge       = 0
  Multiplicity = 1
  Electrons    = 20
  Nalpha       = 10
  Nbeta        = 10

  ==> Algorithm <==

  SCF Algorithm Type is DF.
  DIIS enabled.
  MOM disabled.
  Fractional occupation disabled.
  Guess Type is READ.
  Energy threshold   = 1.00e-08
  Density threshold  = 1.00e-08
  Integral threshold = 0.00e+00

  ==> Primary Basis <==

  Basis Set: DEF2-TZVPPD
    Blend: DEF2-TZVPPD
    Number of shells: 23
    Number of basis function: 73
    Number of Cartesian functions: 89
    Spherical Harmonics?: true
    Max angular momentum: 4

  Core potential: DEF2-TZVPPD
    Number of shells: 4
    Number of ECP primitives: 14
    Number of ECP core electrons: 28
    Max angular momentum: 3

  ==> DFT Potential <==

   => Composite Functional: GAM <= 

   GAM GGA Minessota Exchange-Correlation Functional

    H.S. Yu, et al., Phys. Chem. Chem. Phys. 17, 12146, 2015


    Deriv               =              1
    GGA                 =           TRUE
    Meta                =          FALSE

    Exchange Hybrid     =          FALSE
    MP2 Hybrid          =          FALSE

   => Exchange Functionals <=

    1.0000     XC_GGA_X_GAM

   => Correlation Functionals <=

    1.0000     XC_GGA_C_GAM

   => Molecular Quadrature <=

    Radial Scheme          =       TREUTLER
    Pruning Scheme         =           FLAT
    Nuclear Scheme         =       TREUTLER

    BS radius alpha        =              1
    Pruning alpha          =              1
    Radial Points          =             75
    Spherical Points       =            302
    Total Points           =          45039
    Total Blocks           =            423
    Max Points             =            256
    Max Functions          =             73

   => Loading Basis Set <=

    Name: (DEF2-TZVPPD AUX)
    Role: JKFIT
    Keyword: DF_BASIS_SCF
    atoms 1 entry AG         line  4369 file /work/zw18965/.conda/envs/p4env/share/psi4/basis/def2-tzvpp-jkfit.gbs 
    atoms 2 entry H          line    23 file /work/zw18965/.conda/envs/p4env/share/psi4/basis/def2-tzvpp-jkfit.gbs 

   => Loading Basis Set <=

    Name: DEF2-TZVPPD
    Role: ORBITAL
    Keyword: BASIS
    atoms 1 entry AG         line  2174 (ECP: line  3646) file /work/zw18965/.conda/envs/p4env/share/psi4/basis/def2-tzvppd.gbs 
    atoms 2 entry H          line    14 file /work/zw18965/.conda/envs/p4env/share/psi4/basis/def2-tzvppd.gbs 

    !!!  WARNING: ECP capability is in beta. Please check occupations closely.  !!!

  Reading orbitals from file 180, no projection.

  ==> Pre-Iterations <==

   -------------------------------------------------------
    Irrep   Nso     Nmo     Nalpha   Nbeta   Ndocc  Nsocc
   -------------------------------------------------------
     A1        31      31       0       0       0       0
     A2         8       8       0       0       0       0
     B1        17      17       0       0       0       0
     B2        17      17       0       0       0       0
   -------------------------------------------------------
    Total      73      73      10      10      10       0
   -------------------------------------------------------

  ==> Integral Setup <==

  DFHelper Memory: AOs need 0.014 GiB; user supplied 100.496 GiB. Using in-core AOs.

  ==> MemDFJK: Density-Fitted J/K Matrices <==

    J tasked:                   Yes
    K tasked:                    No
    wK tasked:                   No
    OpenMP threads:              24
    Memory [MiB]:            102908
    Algorithm:                 Core
    Schwarz Cutoff:           1E-12
    Mask sparsity (%):       0.0000
    Fitting Condition:        1E-10

   => Auxiliary Basis Set <=

  Basis Set: (DEF2-TZVPPD AUX)
    Blend: DEF2-TZVPP-JKFIT
    Number of shells: 55
    Number of basis function: 273
    Number of Cartesian functions: 404
    Spherical Harmonics?: true
    Max angular momentum: 6

  Cached 100.0% of DFT collocation blocks in 0.086 [GiB].

  Minimum eigenvalue in the overlap matrix is 3.3675476527E-03.
  Using Symmetric Orthogonalization.

  SCF Guess: Orbitals guess was supplied from a previous computation.

  ==> Iterations <==

                           Total Energy        Delta E     RMS |[F,P]|

   @DF-RKS iter   0:  -148.15223977899882   -1.48152e+02   9.71845e-05 
   @DF-RKS iter   1:  -148.15266149160553   -4.21713e-04   2.46647e-05 DIIS
   @DF-RKS iter   2:  -148.15266012212402    1.36948e-06   4.97164e-05 DIIS
   @DF-RKS iter   3:  -148.15266202174649   -1.89962e-06   2.98998e-06 DIIS
   @DF-RKS iter   4:  -148.15266202367619   -1.92969e-09   2.08151e-06 DIIS
   @DF-RKS iter   5:  -148.15266202699826   -3.32207e-09   1.75883e-07 DIIS
   @DF-RKS iter   6:  -148.15266202701139   -1.31308e-11   5.84277e-08 DIIS
   @DF-RKS iter   7:  -148.15266202701648   -5.08749e-12   8.64954e-09 DIIS
  Energy and wave function converged.


  ==> Post-Iterations <==

    Orbital Energies [Eh]
    ---------------------

    Doubly Occupied:                                                      

       1A1    -3.595365     2A1    -2.231035     1B1    -2.222085  
       1B2    -2.222085     3A1    -0.342935     2B2    -0.291629  
       2B1    -0.291629     1A2    -0.283361     4A1    -0.283361  
       5A1    -0.211857  

    Virtual:                                                              

       6A1    -0.101617     3B2    -0.019743     3B1    -0.019743  
       7A1     0.066556     8A1     0.089294     9A1     0.154899  
       4B2     0.160104     4B1     0.160104     5B1     0.198593  
       5B2     0.198593    10A1     0.360009     2A2     0.376564  
      11A1     0.376564    12A1     0.409637     6B1     0.486764  
       6B2     0.486764    13A1     0.553834     7B1     0.822898  
       7B2     0.822898    14A1     1.021228    15A1     1.516460  
       3A2     1.516462     8B2     1.527274     8B1     1.527274  
       9B2     1.548892     9B1     1.548892    10B2     1.592160  
      10B1     1.592160    16A1     1.611307    17A1     1.780283  
      18A1     1.948173     4A2     1.965728    19A1     1.965729  
      11B2     2.027811    11B1     2.027811    20A1     2.145588  
      21A1     2.557304    22A1     3.165983     5A2     3.166001  
      12B2     3.361686    12B1     3.361686    13B2     3.783521  
      13B1     3.783521    23A1     3.818671    24A1     4.425870  
      14B2     4.664019    14B1     4.664019    25A1     4.676248  
       6A2     4.676255    15B1     4.855074    15B2     4.855074  
      26A1     5.063696    16B2     5.410502    16B1     5.410502  
      27A1     5.412641     7A2     5.412648     8A2     5.414497  
      28A1     5.414522    17B1     5.542163    17B2     5.542163  
      29A1     5.993551    30A1    33.503255    31A1   110.818179  

    Final Occupation by Irrep:
             A1    A2    B1    B2 
    DOCC [     5,    1,    2,    2 ]

  @DF-RKS Final Energy:  -148.15266202701648

   => Energetics <=

    Nuclear Repulsion Energy =              6.2286052795930926
    One-Electron Energy =                -274.4158925033024730
    Two-Electron Energy =                 135.1674452627923699
    DFT Exchange-Correlation Energy =     -15.1328200660994483
    Empirical Dispersion Energy =           0.0000000000000000
    VV10 Nonlocal Energy =                  0.0000000000000000
    Total Energy =                       -148.1526620270164756

Computation Completed


Properties will be evaluated at   0.000000,   0.000000,   0.000000 [a0]

Properties computed using the SCF density matrix

  Nuclear Dipole Moment: [e a0]
     X:     0.0000      Y:     0.0000      Z:    -2.4807

  Electronic Dipole Moment: [e a0]
     X:     0.0000      Y:     0.0000      Z:     3.4866

  Dipole Moment: [e a0]
     X:     0.0000      Y:     0.0000      Z:     1.0059     Total:     1.0059

  Dipole Moment: [D]
     X:     0.0000      Y:     0.0000      Z:     2.5567     Total:     2.5567


*** tstop() called on bp1-compute00157.data.bp.acrc.priv at Fri Oct 29 07:54:21 2021
Module time:
	user time   =      29.61 seconds =       0.49 minutes
	system time =       1.35 seconds =       0.02 minutes
	total time  =          2 seconds =       0.03 minutes
Total time:
	user time   =     667.78 seconds =      11.13 minutes
	system time =      33.67 seconds =       0.56 minutes
	total time  =         67 seconds =       1.12 minutes

*** tstart() called on bp1-compute00157.data.bp.acrc.priv
*** at Fri Oct 29 07:54:21 2021


         ------------------------------------------------------------
                                   SCF GRAD                          
                          Rob Parrish, Justin Turney,                
                       Andy Simmonett, and Alex Sokolov              
         ------------------------------------------------------------

  ==> Geometry <==

    Molecular point group: c2v
    Full point group: C_inf_v

    Geometry (in Angstrom), charge = 0, multiplicity = 1:

       Center              X                  Y                   Z               Mass       
    ------------   -----------------  -----------------  -----------------  -----------------
         AG           0.000000000000     0.000000000000     0.015075635713   106.905091600000
         H            0.000000000000     0.000000000000    -1.599148825688     1.007825032230

  Nuclear repulsion =    6.228605279593093

  ==> Basis Set <==

  Basis Set: DEF2-TZVPPD
    Blend: DEF2-TZVPPD
    Number of shells: 23
    Number of basis function: 73
    Number of Cartesian functions: 89
    Spherical Harmonics?: true
    Max angular momentum: 4

  Core potential: DEF2-TZVPPD
    Number of shells: 4
    Number of ECP primitives: 14
    Number of ECP core electrons: 28
    Max angular momentum: 3

  ==> DFJKGrad: Density-Fitted SCF Gradients <==

    Gradient:                    1
    J tasked:                  Yes
    K tasked:                   No
    wK tasked:                  No
    OpenMP threads:             24
    Integrals threads:          24
    Memory [MiB]:           102996
    Schwarz Cutoff:          0E+00
    Fitting Condition:       1E-10

   => Auxiliary Basis Set <=

  Basis Set: (DEF2-TZVPPD AUX)
    Blend: DEF2-TZVPP-JKFIT
    Number of shells: 55
    Number of basis function: 273
    Number of Cartesian functions: 404
    Spherical Harmonics?: true
    Max angular momentum: 6

  ==> DFT Potential <==

   => Composite Functional: GAM <= 

   GAM GGA Minessota Exchange-Correlation Functional

    H.S. Yu, et al., Phys. Chem. Chem. Phys. 17, 12146, 2015


    Deriv               =              1
    GGA                 =           TRUE
    Meta                =          FALSE

    Exchange Hybrid     =          FALSE
    MP2 Hybrid          =          FALSE

   => Exchange Functionals <=

    1.0000     XC_GGA_X_GAM

   => Correlation Functionals <=

    1.0000     XC_GGA_C_GAM

   => Molecular Quadrature <=

    Radial Scheme          =       TREUTLER
    Pruning Scheme         =           FLAT
    Nuclear Scheme         =       TREUTLER

    BS radius alpha        =              1
    Pruning alpha          =              1
    Radial Points          =             75
    Spherical Points       =            302
    Total Points           =          45039
    Total Blocks           =            423
    Max Points             =            256
    Max Functions          =             73


  -Total Gradient:
     Atom            X                  Y                   Z
    ------   -----------------  -----------------  -----------------
       1       -0.000000000000    -0.000000000000    -0.103522107912
       2        0.000000000000     0.000000000000     0.102505832646


*** tstop() called on bp1-compute00157.data.bp.acrc.priv at Fri Oct 29 07:54:26 2021
Module time:
	user time   =      31.77 seconds =       0.53 minutes
	system time =       2.71 seconds =       0.05 minutes
	total time  =          5 seconds =       0.08 minutes
Total time:
	user time   =     699.57 seconds =      11.66 minutes
	system time =      36.38 seconds =       0.61 minutes
	total time  =         72 seconds =       1.20 minutes


  ==> Adding ECP gradient terms (computed numerically) <==

  -ECP Gradient:
     Atom            X                  Y                   Z
    ------   -----------------  -----------------  -----------------
       1        0.000000000000     0.000000000000     0.099218775279
       2        0.000000000000     0.000000000000    -0.099218775282


  -Total Gradient:
     Atom            X                  Y                   Z
    ------   -----------------  -----------------  -----------------
       1       -0.000000000000    -0.000000000000    -0.004303332634
       2        0.000000000000     0.000000000000     0.003287057364


			-----------------------------------------
			 OPTKING 2.0: for geometry optimizations 
			  - R.A. King,  Bethel University        
			-----------------------------------------
	At level 1: Red. Int., RFO, no backsteps, dynamic trust

	Previous internal coordinate definitions found.
	---Fragment 1 Geometry and Gradient---
	 AG          0.0000000000        0.0000000000        0.0284888227
	 H           0.0000000000        0.0000000000       -3.0219533144
	            -0.0000000000       -0.0000000000       -0.0043033326
	             0.0000000000        0.0000000000        0.0032870574

	---Fragment 1 Intrafragment Coordinates---
	 - Coordinate -           - BOHR/RAD -       - ANG/DEG -
	 R(1,2)           =         3.050442	       1.614224

	Current energy   :      -148.1526620270

	Energy change for the previous step:
		Projected    :        -0.0000093390
		Actual       :        -0.0000177304

	Performing BFGS update.
	Previous computed or guess Hessian on step 1.
	Steps to be used in Hessian update: 2 1
	Taking RFO optimization step.
	Going to follow RFO solution 1.
	Using RFO vector 1.
	Norm of target step-size    0.03299
	Projected energy change by RFO approximation:         0.0004183899

	Back-transformation to cartesian coordinates...
	Successfully converged to displaced geometry.

	--- Internal Coordinate Step in ANG or DEG, aJ/ANG or AJ/DEG ---
	 ---------------------------------------------------------------------------
	   Coordinate                Previous        Force       Change         New 
	   ----------                --------       ------       ------       ------
	    1 R(1,2)          =      1.614224     0.031268     0.017455     1.631680
	 ---------------------------------------------------------------------------
	Successfully symmetrized geometry.

  ==> Convergence Check <==

  Measures of convergence in internal coordinates in au.
  Criteria marked as inactive (o), active & met (*), and active & unmet ( ).
  ---------------------------------------------------------------------------------------------
   Step     Total Energy     Delta E     MAX Force     RMS Force      MAX Disp      RMS Disp   
  ---------------------------------------------------------------------------------------------
    Convergence Criteria    1.00e-06 *    3.00e-04 *             o    1.20e-03 *             o
  ---------------------------------------------------------------------------------------------
      3    -148.15266203   -1.77e-05      3.80e-03      3.80e-03 o    3.30e-02      3.30e-02 o  ~
  ---------------------------------------------------------------------------------------------

	Writing optimization data to binary file.
	Structure for next step:
	Cartesian Geometry (in Angstrom)
	   AG     0.0000000000   0.0000000000   0.0238033130
	    H     0.0000000000   0.0000000000  -1.6078764967
			--------------------------
			 OPTKING Finished Execution 
			--------------------------

    Structure for next step:
    Molecular point group: c2v
    Full point group: C_inf_v

    Geometry (in Angstrom), charge = 0, multiplicity = 1:

    AG           0.000000000000     0.000000000000     0.015238655525
    H            0.000000000000     0.000000000000    -1.616441160567

gradient() will perform analytic gradient computation.

*** tstart() called on bp1-compute00157.data.bp.acrc.priv
*** at Fri Oct 29 07:54:51 2021

   => Loading Basis Set <=

    Name: DEF2-TZVPPD
    Role: ORBITAL
    Keyword: BASIS
    atoms 1 entry AG         line  2174 (ECP: line  3646) file /work/zw18965/.conda/envs/p4env/share/psi4/basis/def2-tzvppd.gbs 
    atoms 2 entry H          line    14 file /work/zw18965/.conda/envs/p4env/share/psi4/basis/def2-tzvppd.gbs 

    !!!  WARNING: ECP capability is in beta. Please check occupations closely.  !!!


         ---------------------------------------------------------
                                   SCF
               by Justin Turney, Rob Parrish, Andy Simmonett
                          and Daniel G. A. Smith
                              RKS Reference
                       24 Threads, 137329 MiB Core
         ---------------------------------------------------------

  ==> Geometry <==

    Molecular point group: c2v
    Full point group: C_inf_v

    Geometry (in Angstrom), charge = 0, multiplicity = 1:

       Center              X                  Y                   Z               Mass       
    ------------   -----------------  -----------------  -----------------  -----------------
         AG           0.000000000000     0.000000000000     0.015238655525   106.905091600000
         H            0.000000000000     0.000000000000    -1.616441160567     1.007825032230

  Running in c2v symmetry.

  Rotational constants: A = ************  B =      6.34186  C =      6.34186 [cm^-1]
  Rotational constants: A = ************  B = 190124.11971  C = 190124.11971 [MHz]
  Nuclear repulsion =    6.161973019200918

  Charge       = 0
  Multiplicity = 1
  Electrons    = 20
  Nalpha       = 10
  Nbeta        = 10

  ==> Algorithm <==

  SCF Algorithm Type is DF.
  DIIS enabled.
  MOM disabled.
  Fractional occupation disabled.
  Guess Type is READ.
  Energy threshold   = 1.00e-08
  Density threshold  = 1.00e-08
  Integral threshold = 0.00e+00

  ==> Primary Basis <==

  Basis Set: DEF2-TZVPPD
    Blend: DEF2-TZVPPD
    Number of shells: 23
    Number of basis function: 73
    Number of Cartesian functions: 89
    Spherical Harmonics?: true
    Max angular momentum: 4

  Core potential: DEF2-TZVPPD
    Number of shells: 4
    Number of ECP primitives: 14
    Number of ECP core electrons: 28
    Max angular momentum: 3

  ==> DFT Potential <==

   => Composite Functional: GAM <= 

   GAM GGA Minessota Exchange-Correlation Functional

    H.S. Yu, et al., Phys. Chem. Chem. Phys. 17, 12146, 2015


    Deriv               =              1
    GGA                 =           TRUE
    Meta                =          FALSE

    Exchange Hybrid     =          FALSE
    MP2 Hybrid          =          FALSE

   => Exchange Functionals <=

    1.0000     XC_GGA_X_GAM

   => Correlation Functionals <=

    1.0000     XC_GGA_C_GAM

   => Molecular Quadrature <=

    Radial Scheme          =       TREUTLER
    Pruning Scheme         =           FLAT
    Nuclear Scheme         =       TREUTLER

    BS radius alpha        =              1
    Pruning alpha          =              1
    Radial Points          =             75
    Spherical Points       =            302
    Total Points           =          45039
    Total Blocks           =            421
    Max Points             =            256
    Max Functions          =             73

   => Loading Basis Set <=

    Name: (DEF2-TZVPPD AUX)
    Role: JKFIT
    Keyword: DF_BASIS_SCF
    atoms 1 entry AG         line  4369 file /work/zw18965/.conda/envs/p4env/share/psi4/basis/def2-tzvpp-jkfit.gbs 
    atoms 2 entry H          line    23 file /work/zw18965/.conda/envs/p4env/share/psi4/basis/def2-tzvpp-jkfit.gbs 

   => Loading Basis Set <=

    Name: DEF2-TZVPPD
    Role: ORBITAL
    Keyword: BASIS
    atoms 1 entry AG         line  2174 (ECP: line  3646) file /work/zw18965/.conda/envs/p4env/share/psi4/basis/def2-tzvppd.gbs 
    atoms 2 entry H          line    14 file /work/zw18965/.conda/envs/p4env/share/psi4/basis/def2-tzvppd.gbs 

    !!!  WARNING: ECP capability is in beta. Please check occupations closely.  !!!

  Reading orbitals from file 180, no projection.

  ==> Pre-Iterations <==

   -------------------------------------------------------
    Irrep   Nso     Nmo     Nalpha   Nbeta   Ndocc  Nsocc
   -------------------------------------------------------
     A1        31      31       0       0       0       0
     A2         8       8       0       0       0       0
     B1        17      17       0       0       0       0
     B2        17      17       0       0       0       0
   -------------------------------------------------------
    Total      73      73      10      10      10       0
   -------------------------------------------------------

  ==> Integral Setup <==

  DFHelper Memory: AOs need 0.014 GiB; user supplied 100.496 GiB. Using in-core AOs.

  ==> MemDFJK: Density-Fitted J/K Matrices <==

    J tasked:                   Yes
    K tasked:                    No
    wK tasked:                   No
    OpenMP threads:              24
    Memory [MiB]:            102908
    Algorithm:                 Core
    Schwarz Cutoff:           1E-12
    Mask sparsity (%):       0.0000
    Fitting Condition:        1E-10

   => Auxiliary Basis Set <=

  Basis Set: (DEF2-TZVPPD AUX)
    Blend: DEF2-TZVPP-JKFIT
    Number of shells: 55
    Number of basis function: 273
    Number of Cartesian functions: 404
    Spherical Harmonics?: true
    Max angular momentum: 6

  Cached 100.0% of DFT collocation blocks in 0.086 [GiB].

  Minimum eigenvalue in the overlap matrix is 3.5996439853E-03.
  Using Symmetric Orthogonalization.

  SCF Guess: Orbitals guess was supplied from a previous computation.

  ==> Iterations <==

                           Total Energy        Delta E     RMS |[F,P]|

   @DF-RKS iter   0:  -148.14996967675933   -1.48150e+02   6.23753e-04 
   @DF-RKS iter   1:  -148.15268622150830   -2.71654e-03   1.61113e-04 DIIS
   @DF-RKS iter   2:  -148.15262566205487    6.05595e-05   3.25715e-04 DIIS
   @DF-RKS iter   3:  -148.15270912053558   -8.34585e-05   2.08588e-05 DIIS
   @DF-RKS iter   4:  -148.15270922018888   -9.96533e-08   1.36827e-05 DIIS
   @DF-RKS iter   5:  -148.15270936970637   -1.49517e-07   1.13796e-06 DIIS
   @DF-RKS iter   6:  -148.15270937022075   -5.14376e-10   3.93598e-07 DIIS
   @DF-RKS iter   7:  -148.15270937046265   -2.41897e-10   5.52407e-08 DIIS
   @DF-RKS iter   8:  -148.15270937046574   -3.09797e-12   4.94254e-09 DIIS
  Energy and wave function converged.


  ==> Post-Iterations <==

    Orbital Energies [Eh]
    ---------------------

    Doubly Occupied:                                                      

       1A1    -3.594702     2A1    -2.230041     1B1    -2.221597  
       1B2    -2.221597     3A1    -0.340091     2B2    -0.290931  
       2B1    -0.290931     1A2    -0.283077     4A1    -0.283077  
       5A1    -0.212044  

    Virtual:                                                              

       6A1    -0.102358     3B1    -0.019712     3B2    -0.019712  
       7A1     0.066680     8A1     0.088320     9A1     0.154415  
       4B1     0.160018     4B2     0.160018     5B1     0.198152  
       5B2     0.198152    10A1     0.357408     2A2     0.376592  
      11A1     0.376592    12A1     0.410488     6B2     0.485661  
       6B1     0.485661    13A1     0.552093     7B1     0.823462  
       7B2     0.823462    14A1     1.017552    15A1     1.517290  
       3A2     1.517293     8B2     1.527396     8B1     1.527396  
       9B1     1.548116     9B2     1.548116    10B1     1.589364  
      10B2     1.589364    16A1     1.611453    17A1     1.773173  
      18A1     1.954267     4A2     1.965990    19A1     1.965990  
      11B2     2.026356    11B1     2.026356    20A1     2.130661  
      21A1     2.555954    22A1     3.167250     5A2     3.167271  
      12B1     3.351154    12B2     3.351154    13B1     3.781793  
      13B2     3.781793    23A1     3.804108    24A1     4.395986  
      14B2     4.664402    14B1     4.664402    25A1     4.675265  
       6A2     4.675273    15B2     4.849858    15B1     4.849858  
      26A1     5.066310    16B2     5.410906    16B1     5.410906  
      27A1     5.412273     7A2     5.412281     8A2     5.414705  
      28A1     5.414736    17B1     5.527279    17B2     5.527279  
      29A1     5.957657    30A1    33.486094    31A1   110.813640  

    Final Occupation by Irrep:
             A1    A2    B1    B2 
    DOCC [     5,    1,    2,    2 ]

  @DF-RKS Final Energy:  -148.15270937046574

   => Energetics <=

    Nuclear Repulsion Energy =              6.1619730192009179
    One-Electron Energy =                -274.2980114520294137
    Two-Electron Energy =                 135.1148027732399441
    DFT Exchange-Correlation Energy =     -15.1314737108771773
    Empirical Dispersion Energy =           0.0000000000000000
    VV10 Nonlocal Energy =                  0.0000000000000000
    Total Energy =                       -148.1527093704657432

Computation Completed


Properties will be evaluated at   0.000000,   0.000000,   0.000000 [a0]

Properties computed using the SCF density matrix

  Nuclear Dipole Moment: [e a0]
     X:     0.0000      Y:     0.0000      Z:    -2.5075

  Electronic Dipole Moment: [e a0]
     X:     0.0000      Y:     0.0000      Z:     3.5209

  Dipole Moment: [e a0]
     X:     0.0000      Y:     0.0000      Z:     1.0134     Total:     1.0134

  Dipole Moment: [D]
     X:     0.0000      Y:     0.0000      Z:     2.5758     Total:     2.5758


*** tstop() called on bp1-compute00157.data.bp.acrc.priv at Fri Oct 29 07:54:53 2021
Module time:
	user time   =      29.95 seconds =       0.50 minutes
	system time =       1.29 seconds =       0.02 minutes
	total time  =          2 seconds =       0.03 minutes
Total time:
	user time   =     977.39 seconds =      16.29 minutes
	system time =      49.39 seconds =       0.82 minutes
	total time  =         99 seconds =       1.65 minutes

*** tstart() called on bp1-compute00157.data.bp.acrc.priv
*** at Fri Oct 29 07:54:53 2021


         ------------------------------------------------------------
                                   SCF GRAD                          
                          Rob Parrish, Justin Turney,                
                       Andy Simmonett, and Alex Sokolov              
         ------------------------------------------------------------

  ==> Geometry <==

    Molecular point group: c2v
    Full point group: C_inf_v

    Geometry (in Angstrom), charge = 0, multiplicity = 1:

       Center              X                  Y                   Z               Mass       
    ------------   -----------------  -----------------  -----------------  -----------------
         AG           0.000000000000     0.000000000000     0.015238655525   106.905091600000
         H            0.000000000000     0.000000000000    -1.616441160567     1.007825032230

  Nuclear repulsion =    6.161973019200918

  ==> Basis Set <==

  Basis Set: DEF2-TZVPPD
    Blend: DEF2-TZVPPD
    Number of shells: 23
    Number of basis function: 73
    Number of Cartesian functions: 89
    Spherical Harmonics?: true
    Max angular momentum: 4

  Core potential: DEF2-TZVPPD
    Number of shells: 4
    Number of ECP primitives: 14
    Number of ECP core electrons: 28
    Max angular momentum: 3

  ==> DFJKGrad: Density-Fitted SCF Gradients <==

    Gradient:                    1
    J tasked:                  Yes
    K tasked:                   No
    wK tasked:                  No
    OpenMP threads:             24
    Integrals threads:          24
    Memory [MiB]:           102996
    Schwarz Cutoff:          0E+00
    Fitting Condition:       1E-10

   => Auxiliary Basis Set <=

  Basis Set: (DEF2-TZVPPD AUX)
    Blend: DEF2-TZVPP-JKFIT
    Number of shells: 55
    Number of basis function: 273
    Number of Cartesian functions: 404
    Spherical Harmonics?: true
    Max angular momentum: 6

  ==> DFT Potential <==

   => Composite Functional: GAM <= 

   GAM GGA Minessota Exchange-Correlation Functional

    H.S. Yu, et al., Phys. Chem. Chem. Phys. 17, 12146, 2015


    Deriv               =              1
    GGA                 =           TRUE
    Meta                =          FALSE

    Exchange Hybrid     =          FALSE
    MP2 Hybrid          =          FALSE

   => Exchange Functionals <=

    1.0000     XC_GGA_X_GAM

   => Correlation Functionals <=

    1.0000     XC_GGA_C_GAM

   => Molecular Quadrature <=

    Radial Scheme          =       TREUTLER
    Pruning Scheme         =           FLAT
    Nuclear Scheme         =       TREUTLER

    BS radius alpha        =              1
    Pruning alpha          =              1
    Radial Points          =             75
    Spherical Points       =            302
    Total Points           =          45039
    Total Blocks           =            421
    Max Points             =            256
    Max Functions          =             73


  -Total Gradient:
     Atom            X                  Y                   Z
    ------   -----------------  -----------------  -----------------
       1        0.000000000000    -0.000000000000    -0.095531599070
       2        0.000000000000     0.000000000000     0.094462369463


*** tstop() called on bp1-compute00157.data.bp.acrc.priv at Fri Oct 29 07:54:58 2021
Module time:
	user time   =      31.87 seconds =       0.53 minutes
	system time =       2.60 seconds =       0.04 minutes
	total time  =          5 seconds =       0.08 minutes
Total time:
	user time   =    1009.28 seconds =      16.82 minutes
	system time =      52.00 seconds =       0.87 minutes
	total time  =        104 seconds =       1.73 minutes


  ==> Adding ECP gradient terms (computed numerically) <==

  -ECP Gradient:
     Atom            X                  Y                   Z
    ------   -----------------  -----------------  -----------------
       1        0.000000000000     0.000000000000     0.094817494759
       2        0.000000000000     0.000000000000    -0.094817494748


  -Total Gradient:
     Atom            X                  Y                   Z
    ------   -----------------  -----------------  -----------------
       1        0.000000000000    -0.000000000000    -0.000714104310
       2        0.000000000000     0.000000000000    -0.000355125285


			-----------------------------------------
			 OPTKING 2.0: for geometry optimizations 
			  - R.A. King,  Bethel University        
			-----------------------------------------
	At level 1: Red. Int., RFO, no backsteps, dynamic trust

	Previous internal coordinate definitions found.
	---Fragment 1 Geometry and Gradient---
	 AG          0.0000000000        0.0000000000        0.0287968855
	 H           0.0000000000        0.0000000000       -3.0546310914
	             0.0000000000       -0.0000000000       -0.0007141043
	             0.0000000000        0.0000000000       -0.0003551253

	---Fragment 1 Intrafragment Coordinates---
	 - Coordinate -           - BOHR/RAD -       - ANG/DEG -
	 R(1,2)           =         3.083428	       1.631680

	Current energy   :      -148.1527093705

	Energy change for the previous step:
		Projected    :         0.0004183899
		Actual       :        -0.0000473434

	Performing BFGS update.
	Previous computed or guess Hessian on step 1.
	Steps to be used in Hessian update: 3 2
	Taking RFO optimization step.
	Going to follow RFO solution 1.
	Using RFO vector 1.
	Norm of target step-size    0.00163
	Projected energy change by RFO approximation:         0.0000010326

	Back-transformation to cartesian coordinates...
	Successfully converged to displaced geometry.

	--- Internal Coordinate Step in ANG or DEG, aJ/ANG or AJ/DEG ---
	 ---------------------------------------------------------------------------
	   Coordinate                Previous        Force       Change         New 
	   ----------                --------       ------       ------       ------
	    1 R(1,2)          =      1.631680     0.001479     0.000861     1.632541
	 ---------------------------------------------------------------------------
	Successfully symmetrized geometry.

  ==> Convergence Check <==

  Measures of convergence in internal coordinates in au.
  Criteria marked as inactive (o), active & met (*), and active & unmet ( ).
  ---------------------------------------------------------------------------------------------
   Step     Total Energy     Delta E     MAX Force     RMS Force      MAX Disp      RMS Disp   
  ---------------------------------------------------------------------------------------------
    Convergence Criteria    1.00e-06 *    3.00e-04 *             o    1.20e-03 *             o
  ---------------------------------------------------------------------------------------------
      4    -148.15270937   -4.73e-05      1.79e-04 *    1.79e-04 o    1.63e-03      1.63e-03 o  ~
  ---------------------------------------------------------------------------------------------

	Writing optimization data to binary file.
	Structure for next step:
	Cartesian Geometry (in Angstrom)
	   AG     0.0000000000   0.0000000000   0.0156693396
	    H     0.0000000000   0.0000000000  -1.6168718383
			--------------------------
			 OPTKING Finished Execution 
			--------------------------

    Structure for next step:
    Molecular point group: c2v
    Full point group: C_inf_v

    Geometry (in Angstrom), charge = 0, multiplicity = 1:

    AG           0.000000000000     0.000000000000     0.015246700053
    H            0.000000000000     0.000000000000    -1.617294484277

gradient() will perform analytic gradient computation.

*** tstart() called on bp1-compute00157.data.bp.acrc.priv
*** at Fri Oct 29 07:55:23 2021

   => Loading Basis Set <=

    Name: DEF2-TZVPPD
    Role: ORBITAL
    Keyword: BASIS
    atoms 1 entry AG         line  2174 (ECP: line  3646) file /work/zw18965/.conda/envs/p4env/share/psi4/basis/def2-tzvppd.gbs 
    atoms 2 entry H          line    14 file /work/zw18965/.conda/envs/p4env/share/psi4/basis/def2-tzvppd.gbs 

    !!!  WARNING: ECP capability is in beta. Please check occupations closely.  !!!


         ---------------------------------------------------------
                                   SCF
               by Justin Turney, Rob Parrish, Andy Simmonett
                          and Daniel G. A. Smith
                              RKS Reference
                       24 Threads, 137329 MiB Core
         ---------------------------------------------------------

  ==> Geometry <==

    Molecular point group: c2v
    Full point group: C_inf_v

    Geometry (in Angstrom), charge = 0, multiplicity = 1:

       Center              X                  Y                   Z               Mass       
    ------------   -----------------  -----------------  -----------------  -----------------
         AG           0.000000000000     0.000000000000     0.015246700053   106.905091600000
         H            0.000000000000     0.000000000000    -1.617294484277     1.007825032230

  Running in c2v symmetry.

  Rotational constants: A = ************  B =      6.33517  C =      6.33517 [cm^-1]
  Rotational constants: A = ************  B = 189923.54446  C = 189923.54446 [MHz]
  Nuclear repulsion =    6.158721813109138

  Charge       = 0
  Multiplicity = 1
  Electrons    = 20
  Nalpha       = 10
  Nbeta        = 10

  ==> Algorithm <==

  SCF Algorithm Type is DF.
  DIIS enabled.
  MOM disabled.
  Fractional occupation disabled.
  Guess Type is READ.
  Energy threshold   = 1.00e-08
  Density threshold  = 1.00e-08
  Integral threshold = 0.00e+00

  ==> Primary Basis <==

  Basis Set: DEF2-TZVPPD
    Blend: DEF2-TZVPPD
    Number of shells: 23
    Number of basis function: 73
    Number of Cartesian functions: 89
    Spherical Harmonics?: true
    Max angular momentum: 4

  Core potential: DEF2-TZVPPD
    Number of shells: 4
    Number of ECP primitives: 14
    Number of ECP core electrons: 28
    Max angular momentum: 3

  ==> DFT Potential <==

   => Composite Functional: GAM <= 

   GAM GGA Minessota Exchange-Correlation Functional

    H.S. Yu, et al., Phys. Chem. Chem. Phys. 17, 12146, 2015


    Deriv               =              1
    GGA                 =           TRUE
    Meta                =          FALSE

    Exchange Hybrid     =          FALSE
    MP2 Hybrid          =          FALSE

   => Exchange Functionals <=

    1.0000     XC_GGA_X_GAM

   => Correlation Functionals <=

    1.0000     XC_GGA_C_GAM

   => Molecular Quadrature <=

    Radial Scheme          =       TREUTLER
    Pruning Scheme         =           FLAT
    Nuclear Scheme         =       TREUTLER

    BS radius alpha        =              1
    Pruning alpha          =              1
    Radial Points          =             75
    Spherical Points       =            302
    Total Points           =          45039
    Total Blocks           =            421
    Max Points             =            256
    Max Functions          =             73

   => Loading Basis Set <=

    Name: (DEF2-TZVPPD AUX)
    Role: JKFIT
    Keyword: DF_BASIS_SCF
    atoms 1 entry AG         line  4369 file /work/zw18965/.conda/envs/p4env/share/psi4/basis/def2-tzvpp-jkfit.gbs 
    atoms 2 entry H          line    23 file /work/zw18965/.conda/envs/p4env/share/psi4/basis/def2-tzvpp-jkfit.gbs 

   => Loading Basis Set <=

    Name: DEF2-TZVPPD
    Role: ORBITAL
    Keyword: BASIS
    atoms 1 entry AG         line  2174 (ECP: line  3646) file /work/zw18965/.conda/envs/p4env/share/psi4/basis/def2-tzvppd.gbs 
    atoms 2 entry H          line    14 file /work/zw18965/.conda/envs/p4env/share/psi4/basis/def2-tzvppd.gbs 

    !!!  WARNING: ECP capability is in beta. Please check occupations closely.  !!!

  Reading orbitals from file 180, no projection.

  ==> Pre-Iterations <==

   -------------------------------------------------------
    Irrep   Nso     Nmo     Nalpha   Nbeta   Ndocc  Nsocc
   -------------------------------------------------------
     A1        31      31       0       0       0       0
     A2         8       8       0       0       0       0
     B1        17      17       0       0       0       0
     B2        17      17       0       0       0       0
   -------------------------------------------------------
    Total      73      73      10      10      10       0
   -------------------------------------------------------

  ==> Integral Setup <==

  DFHelper Memory: AOs need 0.014 GiB; user supplied 100.496 GiB. Using in-core AOs.

  ==> MemDFJK: Density-Fitted J/K Matrices <==

    J tasked:                   Yes
    K tasked:                    No
    wK tasked:                   No
    OpenMP threads:              24
    Memory [MiB]:            102908
    Algorithm:                 Core
    Schwarz Cutoff:           1E-12
    Mask sparsity (%):       0.0000
    Fitting Condition:        1E-10

   => Auxiliary Basis Set <=

  Basis Set: (DEF2-TZVPPD AUX)
    Blend: DEF2-TZVPP-JKFIT
    Number of shells: 55
    Number of basis function: 273
    Number of Cartesian functions: 404
    Spherical Harmonics?: true
    Max angular momentum: 6

  Cached 100.0% of DFT collocation blocks in 0.086 [GiB].

  Minimum eigenvalue in the overlap matrix is 3.6113693316E-03.
  Using Symmetric Orthogonalization.

  SCF Guess: Orbitals guess was supplied from a previous computation.

  ==> Iterations <==

                           Total Energy        Delta E     RMS |[F,P]|

   @DF-RKS iter   0:  -148.15257392070339   -1.48153e+02   3.02122e-05 
   @DF-RKS iter   1:  -148.15270863434458   -1.34714e-04   7.89801e-06 DIIS
   @DF-RKS iter   2:  -148.15270848883972    1.45505e-07   1.59523e-05 DIIS
   @DF-RKS iter   3:  -148.15270868994870   -2.01109e-07   1.03116e-06 DIIS
   @DF-RKS iter   4:  -148.15270869020316   -2.54460e-10   6.64524e-07 DIIS
   @DF-RKS iter   5:  -148.15270869056027   -3.57119e-10   5.68853e-08 DIIS
   @DF-RKS iter   6:  -148.15270869056161   -1.33582e-12   1.96655e-08 DIIS
   @DF-RKS iter   7:  -148.15270869056224   -6.25278e-13   2.80375e-09 DIIS
  Energy and wave function converged.


  ==> Post-Iterations <==

    Orbital Energies [Eh]
    ---------------------

    Doubly Occupied:                                                      

       1A1    -3.594670     2A1    -2.229994     1B1    -2.221574  
       1B2    -2.221574     3A1    -0.339954     2B1    -0.290898  
       2B2    -0.290898     1A2    -0.283064     4A1    -0.283064  
       5A1    -0.212053  

    Virtual:                                                              

       6A1    -0.102395     3B1    -0.019710     3B2    -0.019710  
       7A1     0.066685     8A1     0.088271     9A1     0.154391  
       4B2     0.160014     4B1     0.160014     5B1     0.198130  
       5B2     0.198130    10A1     0.357279     2A2     0.376593  
      11A1     0.376593    12A1     0.410530     6B1     0.485606  
       6B2     0.485606    13A1     0.552007     7B1     0.823491  
       7B2     0.823491    14A1     1.017369    15A1     1.517330  
       3A2     1.517332     8B1     1.527402     8B2     1.527402  
       9B1     1.548077     9B2     1.548077    10B2     1.589230  
[...]
         AG           0.000000000000     0.000000000000     0.015263385734   106.905091600000
         H            0.000000000000     0.000000000000    -1.619064418810     1.007825032230

  Running in c2v symmetry.

  Rotational constants: A = ************  B =      6.32132  C =      6.32132 [cm^-1]
  Rotational constants: A = ************  B = 189508.52885  C = 189508.52885 [MHz]
  Nuclear repulsion =    6.151989199948254

  Charge       = 0
  Multiplicity = 1
  Electrons    = 20
  Nalpha       = 10
  Nbeta        = 10

  ==> Algorithm <==

  SCF Algorithm Type is DF.
  DIIS enabled.
  MOM disabled.
  Fractional occupation disabled.
  Guess Type is SAD.
  Energy threshold   = 1.00e-08
  Density threshold  = 1.00e-08
  Integral threshold = 0.00e+00

  ==> Primary Basis <==

  Basis Set: DEF2-TZVPPD
    Blend: DEF2-TZVPPD
    Number of shells: 23
    Number of basis function: 73
    Number of Cartesian functions: 89
    Spherical Harmonics?: true
    Max angular momentum: 4

  Core potential: DEF2-TZVPPD
    Number of shells: 4
    Number of ECP primitives: 14
    Number of ECP core electrons: 28
    Max angular momentum: 3

  ==> DFT Potential <==

   => Composite Functional: GAM <= 

   GAM GGA Minessota Exchange-Correlation Functional

    H.S. Yu, et al., Phys. Chem. Chem. Phys. 17, 12146, 2015


    Deriv               =              1
    GGA                 =           TRUE
    Meta                =          FALSE

    Exchange Hybrid     =          FALSE
    MP2 Hybrid          =          FALSE

   => Exchange Functionals <=

    1.0000     XC_GGA_X_GAM

   => Correlation Functionals <=

    1.0000     XC_GGA_C_GAM

   => Molecular Quadrature <=

    Radial Scheme          =       TREUTLER
    Pruning Scheme         =           FLAT
    Nuclear Scheme         =       TREUTLER

    BS radius alpha        =              1
    Pruning alpha          =              1
    Radial Points          =             75
    Spherical Points       =            302
    Total Points           =          45039
    Total Blocks           =            422
    Max Points             =            256
    Max Functions          =             73

   => Loading Basis Set <=

    Name: (DEF2-TZVPPD AUX)
    Role: JKFIT
    Keyword: DF_BASIS_SCF
    atoms 1 entry AG         line  4369 file /work/zw18965/.conda/envs/p4env/share/psi4/basis/def2-tzvpp-jkfit.gbs 
    atoms 2 entry H          line    23 file /work/zw18965/.conda/envs/p4env/share/psi4/basis/def2-tzvpp-jkfit.gbs 

  ==> Pre-Iterations <==

   -------------------------------------------------------
    Irrep   Nso     Nmo     Nalpha   Nbeta   Ndocc  Nsocc
   -------------------------------------------------------
     A1        31      31       0       0       0       0
     A2         8       8       0       0       0       0
     B1        17      17       0       0       0       0
     B2        17      17       0       0       0       0
   -------------------------------------------------------
    Total      73      73      10      10      10       0
   -------------------------------------------------------

  ==> Integral Setup <==

  DFHelper Memory: AOs need 0.014 GiB; user supplied 100.496 GiB. Using in-core AOs.

  ==> MemDFJK: Density-Fitted J/K Matrices <==

    J tasked:                   Yes
    K tasked:                    No
    wK tasked:                   No
    OpenMP threads:              24
    Memory [MiB]:            102908
    Algorithm:                 Core
    Schwarz Cutoff:           1E-12
    Mask sparsity (%):       0.0000
    Fitting Condition:        1E-10

   => Auxiliary Basis Set <=

  Basis Set: (DEF2-TZVPPD AUX)
    Blend: DEF2-TZVPP-JKFIT
    Number of shells: 55
    Number of basis function: 273
    Number of Cartesian functions: 404
    Spherical Harmonics?: true
    Max angular momentum: 6

  Cached 100.0% of DFT collocation blocks in 0.086 [GiB].

  Minimum eigenvalue in the overlap matrix is 3.6357714303E-03.
  Using Symmetric Orthogonalization.

  SCF Guess: Superposition of Atomic Densities via on-the-fly atomic UHF.

  ==> Iterations <==

                           Total Energy        Delta E     RMS |[F,P]|

   @DF-RKS iter SAD:  -147.87749004518997   -1.47877e+02   0.00000e+00 
   @DF-RKS iter   1:  -148.09142950080962   -2.13939e-01   7.85012e-03 DIIS
   @DF-RKS iter   2:  -147.81667753411097    2.74752e-01   1.81610e-02 DIIS
   @DF-RKS iter   3:  -148.15009879132921   -3.33421e-01   2.17095e-03 DIIS
   @DF-RKS iter   4:  -148.15179199515478   -1.69320e-03   1.37938e-03 DIIS
   @DF-RKS iter   5:  -148.15248659666076   -6.94602e-04   3.94277e-04 DIIS
   @DF-RKS iter   6:  -148.15270081707268   -2.14220e-04   6.23745e-05 DIIS
   @DF-RKS iter   7:  -148.15270625361859   -5.43655e-06   1.33974e-05 DIIS
   @DF-RKS iter   8:  -148.15270639395885   -1.40340e-07   1.89994e-06 DIIS
   @DF-RKS iter   9:  -148.15270639803919   -4.08033e-09   2.66922e-07 DIIS
   @DF-RKS iter  10:  -148.15270639810095   -6.17604e-11   2.61825e-08 DIIS
   @DF-RKS iter  11:  -148.15270639810183   -8.81073e-13   1.33517e-09 DIIS
  Energy and wave function converged.


  ==> Post-Iterations <==

    Orbital Energies [Eh]
    ---------------------

    Doubly Occupied:                                                      

       1A1    -3.594606     2A1    -2.229896     1B2    -2.221527  
       1B1    -2.221527     3A1    -0.339670     2B2    -0.290830  
       2B1    -0.290830     1A2    -0.283037     4A1    -0.283037  
       5A1    -0.212072  

    Virtual:                                                              

       6A1    -0.102471     3B2    -0.019708     3B1    -0.019708  
       7A1     0.066697     8A1     0.088171     9A1     0.154341  
       4B2     0.160004     4B1     0.160004     5B2     0.198085  
       5B1     0.198085    10A1     0.357013     2A2     0.376595  
      11A1     0.376595    12A1     0.410617     6B2     0.485492  
       6B1     0.485492    13A1     0.551830     7B2     0.823551  
       7B1     0.823551    14A1     1.016988    15A1     1.517411  
       3A2     1.517413     8B2     1.527412     8B1     1.527412  
       9B2     1.547996     9B1     1.547996    10B2     1.588954  
      10B1     1.588954    16A1     1.611471    17A1     1.772073  
      18A1     1.955146     4A2     1.966026    19A1     1.966027  
      11B2     2.026148    11B1     2.026148    20A1     2.128490  
      21A1     2.555740    22A1     3.167442     5A2     3.167463  
      12B2     3.349598    12B1     3.349598    13B2     3.781540  
      13B1     3.781540    23A1     3.801825    24A1     4.391552  
      14B2     4.664457    14B1     4.664457    25A1     4.675122  
       6A2     4.675131    15B2     4.849022    15B1     4.849022  
      26A1     5.066662    16B1     5.410964    16B2     5.410964  
      27A1     5.412225     7A2     5.412234     8A2     5.414734  
      28A1     5.414766    17B2     5.525151    17B1     5.525151  
      29A1     5.952284    30A1    33.483656    31A1   110.812997  

    Final Occupation by Irrep:
             A1    A2    B1    B2 
    DOCC [     5,    1,    2,    2 ]

  @DF-RKS Final Energy:  -148.15270639810183

   => Energetics <=

    Nuclear Repulsion Energy =              6.1519891999482539
    One-Electron Energy =                -274.2802715420133950
    Two-Electron Energy =                 135.1068488587713432
    DFT Exchange-Correlation Energy =     -15.1312729148080543
    Empirical Dispersion Energy =           0.0000000000000000
    VV10 Nonlocal Energy =                  0.0000000000000000
    Total Energy =                       -148.1527063981018273

Computation Completed


Properties will be evaluated at   0.000000,   0.000000,   0.000000 [a0]

Properties computed using the SCF density matrix

  Nuclear Dipole Moment: [e a0]
     X:     0.0000      Y:     0.0000      Z:    -2.5116

  Electronic Dipole Moment: [e a0]
     X:     0.0000      Y:     0.0000      Z:     3.5261

  Dipole Moment: [e a0]
     X:     0.0000      Y:     0.0000      Z:     1.0145     Total:     1.0145

  Dipole Moment: [D]
     X:     0.0000      Y:     0.0000      Z:     2.5787     Total:     2.5787


*** tstop() called on bp1-compute00157.data.bp.acrc.priv at Fri Oct 29 07:58:10 2021
Module time:
	user time   =      46.78 seconds =       0.78 minutes
	system time =       1.75 seconds =       0.03 minutes
	total time  =          3 seconds =       0.05 minutes
Total time:
	user time   =    2903.20 seconds =      48.39 minutes
	system time =     145.40 seconds =       2.42 minutes
	total time  =        296 seconds =       4.93 minutes

*** tstart() called on bp1-compute00157.data.bp.acrc.priv
*** at Fri Oct 29 07:58:10 2021


         ------------------------------------------------------------
                                   SCF GRAD                          
                          Rob Parrish, Justin Turney,                
                       Andy Simmonett, and Alex Sokolov              
         ------------------------------------------------------------

  ==> Geometry <==

    Molecular point group: c2v
    Full point group: C_inf_v

    Geometry (in Angstrom), charge = 0, multiplicity = 1:

       Center              X                  Y                   Z               Mass       
    ------------   -----------------  -----------------  -----------------  -----------------
         AG           0.000000000000     0.000000000000     0.015263385734   106.905091600000
         H            0.000000000000     0.000000000000    -1.619064418810     1.007825032230

  Nuclear repulsion =    6.151989199948254

  ==> Basis Set <==

  Basis Set: DEF2-TZVPPD
    Blend: DEF2-TZVPPD
    Number of shells: 23
    Number of basis function: 73
    Number of Cartesian functions: 89
    Spherical Harmonics?: true
    Max angular momentum: 4

  Core potential: DEF2-TZVPPD
    Number of shells: 4
    Number of ECP primitives: 14
    Number of ECP core electrons: 28
    Max angular momentum: 3

  ==> DFJKGrad: Density-Fitted SCF Gradients <==

    Gradient:                    1
    J tasked:                  Yes
    K tasked:                   No
    wK tasked:                  No
    OpenMP threads:             24
    Integrals threads:          24
    Memory [MiB]:           102996
    Schwarz Cutoff:          0E+00
    Fitting Condition:       1E-10

   => Auxiliary Basis Set <=

  Basis Set: (DEF2-TZVPPD AUX)
    Blend: DEF2-TZVPP-JKFIT
    Number of shells: 55
    Number of basis function: 273
    Number of Cartesian functions: 404
    Spherical Harmonics?: true
    Max angular momentum: 6

  ==> DFT Potential <==

   => Composite Functional: GAM <= 

   GAM GGA Minessota Exchange-Correlation Functional

    H.S. Yu, et al., Phys. Chem. Chem. Phys. 17, 12146, 2015


    Deriv               =              1
    GGA                 =           TRUE
    Meta                =          FALSE

    Exchange Hybrid     =          FALSE
    MP2 Hybrid          =          FALSE

   => Exchange Functionals <=

    1.0000     XC_GGA_X_GAM

   => Correlation Functionals <=

    1.0000     XC_GGA_C_GAM

   => Molecular Quadrature <=

    Radial Scheme          =       TREUTLER
    Pruning Scheme         =           FLAT
    Nuclear Scheme         =       TREUTLER

    BS radius alpha        =              1
    Pruning alpha          =              1
    Radial Points          =             75
    Spherical Points       =            302
    Total Points           =          45039
    Total Blocks           =            422
    Max Points             =            256
    Max Functions          =             73


  -Total Gradient:
     Atom            X                  Y                   Z
    ------   -----------------  -----------------  -----------------
       1        0.000000000000    -0.000000000000    -0.094362590767
       2        0.000000000000     0.000000000000     0.093290839679


*** tstop() called on bp1-compute00157.data.bp.acrc.priv at Fri Oct 29 07:58:15 2021
Module time:
	user time   =      32.00 seconds =       0.53 minutes
	system time =       2.91 seconds =       0.05 minutes
	total time  =          5 seconds =       0.08 minutes
Total time:
	user time   =    2935.22 seconds =      48.92 minutes
	system time =     148.31 seconds =       2.47 minutes
	total time  =        301 seconds =       5.02 minutes


  ==> Adding ECP gradient terms (computed numerically) <==

  -ECP Gradient:
     Atom            X                  Y                   Z
    ------   -----------------  -----------------  -----------------
       1       -0.000000000000     0.000000000000     0.094173628934
       2       -0.000000000000     0.000000000000    -0.094173628945


  -Total Gradient:
     Atom            X                  Y                   Z
    ------   -----------------  -----------------  -----------------
       1       -0.000000000000     0.000000000000    -0.000188961834
       2       -0.000000000000     0.000000000000    -0.000882789266


         ----------------------------------------------------------
                                   FINDIF
                     R. A. King and Jonathon Misiewicz
         ---------------------------------------------------------

  Computing second-derivative from gradients using projected, 
  symmetry-adapted, cartesian coordinates.

  3 gradients passed in, including the reference geometry.
  Generating complete list of displacements from unique ones.


-------------------------------------------------------------


  ==> Harmonic Vibrational Analysis <==

  non-mass-weighted Hessian:       Symmetric? True   Hermitian? True   Lin Dep Dim?  5 (0)
  projection of translations (True) and rotations (True) removed 5 degrees of freedom (5)
  total projector:                 Symmetric? True   Hermitian? True   Lin Dep Dim?  5 (5)
  mass-weighted Hessian:           Symmetric? True   Hermitian? True   Lin Dep Dim?  5 (0)
  pre-proj  low-frequency mode:    0.0000  [cm^-1]
  pre-proj  low-frequency mode:    0.0000  [cm^-1]
  pre-proj  low-frequency mode:    0.0000  [cm^-1]
  pre-proj  low-frequency mode:    0.0000  [cm^-1]
  pre-proj  low-frequency mode:    0.0000  [cm^-1]
  pre-proj  all modes:['0.0000' '0.0000' '0.0000' '0.0000' '0.0000' '1675.6173']
  projected mass-weighted Hessian: Symmetric? True   Hermitian? True   Lin Dep Dim?  5 (5)
  post-proj low-frequency mode:    0.0000  [cm^-1] (TR)
  post-proj low-frequency mode:    0.0000  [cm^-1] (TR)
  post-proj low-frequency mode:    0.0000  [cm^-1] (TR)
  post-proj low-frequency mode:    0.0000  [cm^-1] (TR)
  post-proj low-frequency mode:    0.0000  [cm^-1] (TR)
  post-proj  all modes:['0.0000' '0.0000' '0.0000' '0.0000' '0.0000' '1675.6173']

  Vibration                       6           
  Freq [cm^-1]                1675.6173       
  Irrep                           A1          
  Reduced mass [u]              1.0172        
  Force const [mDyne/A]         1.6828        
  Turning point v=0 [a0]        0.2658        
  RMS dev v=0 [a0 u^1/2]        0.1895        
  Char temp [K]               2410.8402       
  ----------------------------------------------------------------------------------
      1   AG               0.00  0.00 -0.01   
      2   H                0.00  0.00  1.00   

  ==> Thermochemistry Components <==

  Entropy, S
    Electronic S            0.000 [cal/(mol K)]        0.000 [J/(mol K)]       0.00000000 [mEh/K] (multiplicity = 1)
    Translational S        39.945 [cal/(mol K)]      167.130 [J/(mol K)]       0.06365640 [mEh/K] (mol. weight = 107.9129 [u], P = 101325.00 [Pa])
    Rotational S            8.916 [cal/(mol K)]       37.304 [J/(mol K)]       0.01420831 [mEh/K] (symmetry no. = 1)
    Vibrational S           0.006 [cal/(mol K)]        0.023 [J/(mol K)]       0.00000886 [mEh/K]
  Total S                  48.866 [cal/(mol K)]      204.457 [J/(mol K)]       0.07787357 [mEh/K]
  Correction S              0.000 [cal/(mol K)]        0.000 [J/(mol K)]       0.00000000 [mEh/K]

  Constant volume heat capacity, Cv
    Electronic Cv           0.000 [cal/(mol K)]        0.000 [J/(mol K)]       0.00000000 [mEh/K]
    Translational Cv        2.981 [cal/(mol K)]       12.472 [J/(mol K)]       0.00475022 [mEh/K]
    Rotational Cv           1.987 [cal/(mol K)]        8.314 [J/(mol K)]       0.00316681 [mEh/K]
    Vibrational Cv          0.040 [cal/(mol K)]        0.167 [J/(mol K)]       0.00006378 [mEh/K]
  Total Cv                  5.008 [cal/(mol K)]       20.954 [J/(mol K)]       0.00798080 [mEh/K]
  Correction Cv             0.000 [cal/(mol K)]        0.000 [J/(mol K)]       0.00000000 [mEh/K]

  Constant pressure heat capacity, Cp
    Electronic Cp           0.000 [cal/(mol K)]        0.000 [J/(mol K)]       0.00000000 [mEh/K]
    Translational Cp        4.968 [cal/(mol K)]       20.786 [J/(mol K)]       0.00791703 [mEh/K]
    Rotational Cp           1.987 [cal/(mol K)]        8.314 [J/(mol K)]       0.00316681 [mEh/K]
    Vibrational Cp          0.040 [cal/(mol K)]        0.167 [J/(mol K)]       0.00006378 [mEh/K]
  Total Cp                  6.995 [cal/(mol K)]       29.268 [J/(mol K)]       0.01114761 [mEh/K]
  Correction Cp             0.000 [cal/(mol K)]        0.000 [J/(mol K)]       0.00000000 [mEh/K]

  ==> Thermochemistry Energy Analysis <==

  Raw electronic energy, E0
  Total E0, Electronic energy at well bottom at 0 [K]                 -148.15270937 [Eh]

  Zero-point energy, ZPE_vib = Sum_i nu_i / 2
    Electronic ZPE          0.000 [kcal/mol]        0.000 [kJ/mol]       0.00000000 [Eh]
    Translational ZPE       0.000 [kcal/mol]        0.000 [kJ/mol]       0.00000000 [Eh]
    Rotational ZPE          0.000 [kcal/mol]        0.000 [kJ/mol]       0.00000000 [Eh]
    Vibrational ZPE         2.395 [kcal/mol]       10.022 [kJ/mol]       0.00381734 [Eh]         837.809 [cm^-1]
  Correction ZPE            2.395 [kcal/mol]       10.022 [kJ/mol]       0.00381734 [Eh]         837.809 [cm^-1]
  Total ZPE, Electronic energy at 0 [K]                               -148.14889203 [Eh]

  Thermal Energy, E (includes ZPE)
    Electronic E            0.000 [kcal/mol]        0.000 [kJ/mol]       0.00000000 [Eh]
    Translational E         0.889 [kcal/mol]        3.718 [kJ/mol]       0.00141628 [Eh]
    Rotational E            0.592 [kcal/mol]        2.479 [kJ/mol]       0.00094418 [Eh]
    Vibrational E           2.397 [kcal/mol]       10.029 [kJ/mol]       0.00381969 [Eh]
  Correction E              3.878 [kcal/mol]       16.226 [kJ/mol]       0.00618015 [Eh]
  Total E, Electronic energy at  298.15 [K]                           -148.14652922 [Eh]

  Enthalpy, H_trans = E_trans + k_B * T
    Electronic H            0.000 [kcal/mol]        0.000 [kJ/mol]       0.00000000 [Eh]
    Translational H         1.481 [kcal/mol]        6.197 [kJ/mol]       0.00236046 [Eh]
    Rotational H            0.592 [kcal/mol]        2.479 [kJ/mol]       0.00094418 [Eh]
    Vibrational H           2.397 [kcal/mol]       10.029 [kJ/mol]       0.00381969 [Eh]
  Correction H              4.471 [kcal/mol]       18.705 [kJ/mol]       0.00712433 [Eh]
  Total H, Enthalpy at  298.15 [K]                                    -148.14558504 [Eh]

  Gibbs free energy, G = H - T * S
    Electronic G            0.000 [kcal/mol]        0.000 [kJ/mol]       0.00000000 [Eh]
    Translational G       -10.428 [kcal/mol]      -43.632 [kJ/mol]      -0.01661869 [Eh]
    Rotational G           -2.066 [kcal/mol]       -8.643 [kJ/mol]      -0.00329202 [Eh]
    Vibrational G           2.395 [kcal/mol]       10.022 [kJ/mol]       0.00381705 [Eh]
  Correction G            -10.099 [kcal/mol]      -42.254 [kJ/mol]      -0.01609367 [Eh]
  Total G, Free enthalpy at  298.15 [K]                               -148.16880304 [Eh]

    Psi4 stopped on: Friday, 29 October 2021 07:58AM
    Psi4 wall time for execution: 0:05:25.44

*** Psi4 exiting successfully. Buy a developer a beer!
