Optimizer: Optimization complete!
 3 displacements needed.
 1 2 3
Warning: used thermodynamics relations inappropriate for low-frequency modes: ['464.9144']
At level 1: Red. Int., RFO, no backsteps, dynamic trust
At level 1: Red. Int., RFO, no backsteps, dynamic trust
At level 1: Red. Int., RFO, no backsteps, dynamic trust
At level 1: Red. Int., RFO, no backsteps, dynamic trust
ov,
    R. Di Remigio, R. M. Richard, J. F. Gonthier, A. M. James,
    H. R. McAlexander, A. Kumar, M. Saitow, X. Wang, B. P. Pritchard,
    P. Verma, H. F. Schaefer III, K. Patkowski, R. A. King, E. F. Valeev,
    F. A. Evangelista, J. M. Turney, T. D. Crawford, and C. D. Sherrill,
    J. Chem. Theory Comput. 13(7) pp 3185--3197 (2017).
    (doi: 10.1021/acs.jctc.7b00174)


                         Additional Contributions by
    P. Kraus, H. Kruse, M. H. Lechner, M. C. Schieber, R. A. Shaw,
    A. Alenaizan, R. Galvelis, Z. L. Glick, S. Lehtola, and J. P. Misiewicz

    -----------------------------------------------------------------------


    Psi4 started on: Friday, 29 October 2021 07:48AM

    Process ID: 129222
    Host:       bp1-compute00157.data.bp.acrc.priv
    PSIDATADIR: /work/zw18965/.conda/envs/p4env/share/psi4
    Memory:     500.0 MiB
    Threads:    24
    
  ==> Input File <==

--------------------------------------------------------------------------
memory 144 GB

molecule {
0 1
Ag       0.000000    0.000000    0.317712 
F        0.000000    0.000000   -1.659163 
 }

set dynamic_level 1
set basis Def2-TZVPPD

optimize("GAM")
frequencies("GAM")
--------------------------------------------------------------------------

  Memory set to 134.110 GiB by Python driver.
gradient() will perform analytic gradient computation.

*** tstart() called on bp1-compute00157.data.bp.acrc.priv
*** at Fri Oct 29 07:48:29 2021

   => Loading Basis Set <=

    Name: DEF2-TZVPPD
    Role: ORBITAL
    Keyword: BASIS
    atoms 1 entry AG         line  2174 (ECP: line  3646) file /work/zw18965/.conda/envs/p4env/share/psi4/basis/def2-tzvppd.gbs 
    atoms 2 entry F          line   257 file /work/zw18965/.conda/envs/p4env/share/psi4/basis/def2-tzvppd.gbs 

    !!!  WARNING: ECP capability is in beta. Please check occupations closely.  !!!


         ---------------------------------------------------------
                                   SCF
               by Justin Turney, Rob Parrish, Andy Simmonett
                          and Daniel G. A. Smith
                              RKS Reference
                       24 Threads, 137329 MiB Core
         ---------------------------------------------------------

  ==> Geometry <==

    Molecular point group: c2v
    Full point group: C_inf_v

    Geometry (in Angstrom), charge = 0, multiplicity = 1:

       Center              X                  Y                   Z               Mass       
    ------------   -----------------  -----------------  -----------------  -----------------
         AG           0.000000000000     0.000000000000     0.298303619952   106.905091600000
         F            0.000000000000     0.000000000000    -1.678571380048    18.998403162730

  Running in c2v symmetry.

  Rotational constants: A = ************  B =      0.26740  C =      0.26740 [cm^-1]
  Rotational constants: A = ************  B =   8016.43133  C =   8016.43133 [MHz]
  Nuclear repulsion =   45.773912374110651

  Charge       = 0
  Multiplicity = 1
  Electrons    = 28
  Nalpha       = 14
  Nbeta        = 14

  ==> Algorithm <==

  SCF Algorithm Type is DF.
  DIIS enabled.
  MOM disabled.
  Fractional occupation disabled.
  Guess Type is SAD.
  Energy threshold   = 1.00e-08
  Density threshold  = 1.00e-08
  Integral threshold = 0.00e+00

  ==> Primary Basis <==

  Basis Set: DEF2-TZVPPD
    Blend: DEF2-TZVPPD
    Number of shells: 30
    Number of basis function: 96
    Number of Cartesian functions: 117
    Spherical Harmonics?: true
    Max angular momentum: 4

  Core potential: DEF2-TZVPPD
    Number of shells: 4
    Number of ECP primitives: 14
    Number of ECP core electrons: 28
    Max angular momentum: 3

  ==> DFT Potential <==

   => Composite Functional: GAM <= 

   GAM GGA Minessota Exchange-Correlation Functional

    H.S. Yu, et al., Phys. Chem. Chem. Phys. 17, 12146, 2015


    Deriv               =              1
    GGA                 =           TRUE
    Meta                =          FALSE

    Exchange Hybrid     =          FALSE
    MP2 Hybrid          =          FALSE

   => Exchange Functionals <=

    1.0000     XC_GGA_X_GAM

   => Correlation Functionals <=

    1.0000     XC_GGA_C_GAM

   => Molecular Quadrature <=

    Radial Scheme          =       TREUTLER
    Pruning Scheme         =           FLAT
    Nuclear Scheme         =       TREUTLER

    BS radius alpha        =              1
    Pruning alpha          =              1
    Radial Points          =             75
    Spherical Points       =            302
    Total Points           =          45055
    Total Blocks           =            425
    Max Points             =            254
    Max Functions          =             95

   => Loading Basis Set <=

    Name: (DEF2-TZVPPD AUX)
    Role: JKFIT
    Keyword: DF_BASIS_SCF
    atoms 1 entry AG         line  4369 file /work/zw18965/.conda/envs/p4env/share/psi4/basis/def2-tzvpp-jkfit.gbs 
    atoms 2 entry F          line   383 file /work/zw18965/.conda/envs/p4env/share/psi4/basis/def2-tzvpp-jkfit.gbs 

  ==> Pre-Iterations <==

   -------------------------------------------------------
    Irrep   Nso     Nmo     Nalpha   Nbeta   Ndocc  Nsocc
   -------------------------------------------------------
     A1        41      41       0       0       0       0
     A2        11      11       0       0       0       0
     B1        22      22       0       0       0       0
     B2        22      22       0       0       0       0
   -------------------------------------------------------
    Total      96      96      14      14      14       0
   -------------------------------------------------------

  ==> Integral Setup <==

  DFHelper Memory: AOs need 0.028 GiB; user supplied 100.478 GiB. Using in-core AOs.

  ==> MemDFJK: Density-Fitted J/K Matrices <==

    J tasked:                   Yes
    K tasked:                    No
    wK tasked:                   No
    OpenMP threads:              24
    Memory [MiB]:            102889
    Algorithm:                 Core
    Schwarz Cutoff:           1E-12
    Mask sparsity (%):       0.4557
    Fitting Condition:        1E-10

   => Auxiliary Basis Set <=

  Basis Set: (DEF2-TZVPPD AUX)
    Blend: DEF2-TZVPP-JKFIT
    Number of shells: 74
    Number of basis function: 332
    Number of Cartesian functions: 477
    Spherical Harmonics?: true
    Max angular momentum: 6

  Cached 100.0% of DFT collocation blocks in 0.105 [GiB].

  Minimum eigenvalue in the overlap matrix is 3.3921717907E-03.
  Using Symmetric Orthogonalization.

  SCF Guess: Superposition of Atomic Densities via on-the-fly atomic UHF.

  ==> Iterations <==

                           Total Energy        Delta E     RMS |[F,P]|

   @DF-RKS iter SAD:  -246.92305699736235   -2.46923e+02   0.00000e+00 
   @DF-RKS iter   1:  -247.19934062784185   -2.76284e-01   1.46341e-02 DIIS
   @DF-RKS iter   2:  -237.09982300371436    1.00995e+01   5.79387e-02 DIIS
   @DF-RKS iter   3:  -247.36717453590492   -1.02674e+01   6.02464e-03 DIIS
   @DF-RKS iter   4:  -247.39142794536795   -2.42534e-02   5.38704e-03 DIIS
   @DF-RKS iter   5:  -247.41314297376522   -2.17150e-02   1.35425e-03 DIIS
   @DF-RKS iter   6:  -247.41405977660210   -9.16803e-04   7.86562e-04 DIIS
   @DF-RKS iter   7:  -247.41471926257600   -6.59486e-04   1.66268e-04 DIIS
   @DF-RKS iter   8:  -247.41473884793322   -1.95854e-05   8.25071e-05 DIIS
   @DF-RKS iter   9:  -247.41474648268391   -7.63475e-06   1.11105e-05 DIIS
   @DF-RKS iter  10:  -247.41474660987311   -1.27189e-07   6.86643e-07 DIIS
   @DF-RKS iter  11:  -247.41474661020729   -3.34182e-10   8.25106e-08 DIIS
   @DF-RKS iter  12:  -247.41474661021365   -6.36646e-12   1.76382e-08 DIIS
   @DF-RKS iter  13:  -247.41474661021388   -2.27374e-13   1.93723e-09 DIIS
  Energy and wave function converged.


  ==> Post-Iterations <==

    Orbital Energies [Eh]
    ---------------------

    Doubly Occupied:                                                      

       1A1   -24.110738     2A1    -3.610607     3A1    -2.242540  
       1B1    -2.240543     1B2    -2.240543     4A1    -0.953089  
       5A1    -0.349748     2B1    -0.319898     2B2    -0.319898  
       6A1    -0.305439     1A2    -0.305434     7A1    -0.243712  
       3B1    -0.239279     3B2    -0.239279  

    Virtual:                                                              

       8A1    -0.145444     4B1    -0.015407     4B2    -0.015407  
       9A1     0.029772    10A1     0.085663    11A1     0.144558  
       5B1     0.151466     5B2     0.151466     6B2     0.182827  
       6B1     0.182827    12A1     0.226431    13A1     0.322501  
      14A1     0.354442     2A2     0.354443     7B1     0.444852  
       7B2     0.444852    15A1     0.493184     3A2     0.536106  
      16A1     0.536106     8B2     0.660171     8B1     0.660171  
      17A1     0.661825     9B1     0.770321     9B2     0.770321  
      18A1     1.037455    19A1     1.082497    10B2     1.501067  
      10B1     1.501067    20A1     1.515203     4A2     1.515205  
      11B1     1.526539    11B2     1.526539    21A1     1.591685  
      12B2     1.610568    12B1     1.610568    22A1     1.707615  
      23A1     1.900430    24A1     1.951526     5A2     1.951532  
      13B2     1.961791    13B1     1.961791    25A1     1.998728  
      26A1     2.255828     6A2     2.255845    14B2     2.328117  
      14B1     2.328117    27A1     2.691061    15B1     3.324831  
      15B2     3.324831    28A1     3.630013    29A1     4.048919  
      16B1     4.644288    16B2     4.644288    30A1     4.654700  
       7A2     4.654776    17B2     4.719891    17B1     4.719891  
      31A1     4.912306    32A1     5.388207     8A2     5.388225  
      18B1     5.388424    18B2     5.388424    33A1     5.389602  
       9A2     5.389637    19B2     5.391328    19B1     5.391328  
      34A1     5.455497    35A1     6.815945    10A2     6.815953  
      20B1     6.829493    20B2     6.829493    21B1     6.842330  
      21B2     6.842330    36A1     6.957945    37A1     8.347035  
      11A2     8.347086    22B2     8.380738    22B1     8.380738  
      38A1     8.580639    39A1    33.338071    40A1    56.905165  
      41A1   110.761628  

    Final Occupation by Irrep:
             A1    A2    B1    B2 
    DOCC [     7,    1,    3,    3 ]

  @DF-RKS Final Energy:  -247.41474661021388

   => Energetics <=

    Nuclear Repulsion Energy =             45.7739123741106511
    One-Electron Energy =                -493.4696972919331301
    Two-Electron Energy =                 225.5609683706285864
    DFT Exchange-Correlation Energy =     -25.2799300630199859
    Empirical Dispersion Energy =           0.0000000000000000
    VV10 Nonlocal Energy =                  0.0000000000000000
    Total Energy =                       -247.4147466102138821

Computation Completed


Properties will be evaluated at   0.000000,   0.000000,   0.000000 [a0]

Properties computed using the SCF density matrix

  Nuclear Dipole Moment: [e a0]
     X:     0.0000      Y:     0.0000      Z:   -17.8378

  Electronic Dipole Moment: [e a0]
     X:     0.0000      Y:     0.0000      Z:    19.9290

  Dipole Moment: [e a0]
     X:     0.0000      Y:     0.0000      Z:     2.0911     Total:     2.0911

  Dipole Moment: [D]
     X:     0.0000      Y:     0.0000      Z:     5.3151     Total:     5.3151


*** tstop() called on bp1-compute00157.data.bp.acrc.priv at Fri Oct 29 07:48:34 2021
Module time:
	user time   =      51.13 seconds =       0.85 minutes
	system time =       2.27 seconds =       0.04 minutes
	total time  =          5 seconds =       0.08 minutes
Total time:
	user time   =      51.13 seconds =       0.85 minutes
	system time =       2.27 seconds =       0.04 minutes
	total time  =          5 seconds =       0.08 minutes

*** tstart() called on bp1-compute00157.data.bp.acrc.priv
*** at Fri Oct 29 07:48:34 2021


         ------------------------------------------------------------
                                   SCF GRAD                          
                          Rob Parrish, Justin Turney,                
                       Andy Simmonett, and Alex Sokolov              
         ------------------------------------------------------------

  ==> Geometry <==

    Molecular point group: c2v
    Full point group: C_inf_v

    Geometry (in Angstrom), charge = 0, multiplicity = 1:

       Center              X                  Y                   Z               Mass       
    ------------   -----------------  -----------------  -----------------  -----------------
         AG           0.000000000000     0.000000000000     0.298303619952   106.905091600000
         F            0.000000000000     0.000000000000    -1.678571380048    18.998403162730

  Nuclear repulsion =   45.773912374110651

  ==> Basis Set <==

  Basis Set: DEF2-TZVPPD
    Blend: DEF2-TZVPPD
    Number of shells: 30
    Number of basis function: 96
    Number of Cartesian functions: 117
    Spherical Harmonics?: true
    Max angular momentum: 4

  Core potential: DEF2-TZVPPD
    Number of shells: 4
    Number of ECP primitives: 14
    Number of ECP core electrons: 28
    Max angular momentum: 3

  ==> DFJKGrad: Density-Fitted SCF Gradients <==

    Gradient:                    1
    J tasked:                  Yes
    K tasked:                   No
    wK tasked:                  No
    OpenMP threads:             24
    Integrals threads:          24
    Memory [MiB]:           102996
    Schwarz Cutoff:          0E+00
    Fitting Condition:       1E-10

   => Auxiliary Basis Set <=

  Basis Set: (DEF2-TZVPPD AUX)
    Blend: DEF2-TZVPP-JKFIT
    Number of shells: 74
    Number of basis function: 332
    Number of Cartesian functions: 477
    Spherical Harmonics?: true
    Max angular momentum: 6

  ==> DFT Potential <==

   => Composite Functional: GAM <= 

   GAM GGA Minessota Exchange-Correlation Functional

    H.S. Yu, et al., Phys. Chem. Chem. Phys. 17, 12146, 2015


    Deriv               =              1
    GGA                 =           TRUE
    Meta                =          FALSE

    Exchange Hybrid     =          FALSE
    MP2 Hybrid          =          FALSE

   => Exchange Functionals <=

    1.0000     XC_GGA_X_GAM

   => Correlation Functionals <=

    1.0000     XC_GGA_C_GAM

   => Molecular Quadrature <=

    Radial Scheme          =       TREUTLER
    Pruning Scheme         =           FLAT
    Nuclear Scheme         =       TREUTLER

    BS radius alpha        =              1
    Pruning alpha          =              1
    Radial Points          =             75
    Spherical Points       =            302
    Total Points           =          45055
    Total Blocks           =            425
    Max Points             =            254
    Max Functions          =             95


  -Total Gradient:
     Atom            X                  Y                   Z
    ------   -----------------  -----------------  -----------------
       1        0.000000000000    -0.000000000000    -0.089966376793
       2       -0.000000000000     0.000000000000     0.089250457914


*** tstop() called on bp1-compute00157.data.bp.acrc.priv at Fri Oct 29 07:48:39 2021
Module time:
	user time   =      32.39 seconds =       0.54 minutes
	system time =       9.93 seconds =       0.17 minutes
	total time  =          5 seconds =       0.08 minutes
Total time:
	user time   =      83.54 seconds =       1.39 minutes
	system time =      12.20 seconds =       0.20 minutes
	total time  =         10 seconds =       0.17 minutes


  ==> Adding ECP gradient terms (computed numerically) <==

  -ECP Gradient:
     Atom            X                  Y                   Z
    ------   -----------------  -----------------  -----------------
       1        0.000000000000     0.000000000000     0.078183673390
       2        0.000000000000     0.000000000000    -0.078183673399


  -Total Gradient:
     Atom            X                  Y                   Z
    ------   -----------------  -----------------  -----------------
       1        0.000000000000     0.000000000000    -0.011782703402
       2       -0.000000000000     0.000000000000     0.011066784515


			-----------------------------------------
			 OPTKING 2.0: for geometry optimizations 
			  - R.A. King,  Bethel University        
			-----------------------------------------
	At level 1: Red. Int., RFO, no backsteps, dynamic trust

	Internal coordinates to be generated automatically.
	Detected frag 1 with atoms:  1 2
	---Fragment 1 Bond Connectivity---
	 1 : 2
	 2 : 1

	---Fragment 1 Geometry and Gradient---
	 AG          0.0000000000        0.0000000000        0.5637121439
	 F           0.0000000000        0.0000000000       -3.1720401903
	             0.0000000000        0.0000000000       -0.0117827034
	            -0.0000000000        0.0000000000        0.0110667845

	Previous optimization step data not found.  Starting new optimization.

	---Fragment 1 Intrafragment Coordinates---
	 - Coordinate -           - BOHR/RAD -       - ANG/DEG -
	 R(1,2)           =         3.735752	       1.976875

	Current energy   :      -247.4147466102

	Generating empirical Hessian (Schlegel '84) for each fragment.
	Taking RFO optimization step.
	Going to follow RFO solution 1.
	Using RFO vector 1.
	Norm of target step-size    0.03053
	Projected energy change by RFO approximation:         0.0001172145

	Back-transformation to cartesian coordinates...
	Successfully converged to displaced geometry.

	--- Internal Coordinate Step in ANG or DEG, aJ/ANG or AJ/DEG ---
	 ---------------------------------------------------------------------------
	   Coordinate                Previous        Force       Change         New 
	   ----------                --------       ------       ------       ------
	    1 R(1,2)          =      1.976875     0.094125     0.016158     1.993033
	 ---------------------------------------------------------------------------
	Successfully symmetrized geometry.

  ==> Convergence Check <==

  Measures of convergence in internal coordinates in au.
  Criteria marked as inactive (o), active & met (*), and active & unmet ( ).
  --------------------------------------------------------------------------------------------- ~
   Step     Total Energy     Delta E     MAX Force     RMS Force      MAX Disp      RMS Disp    ~
  --------------------------------------------------------------------------------------------- ~
    Convergence Criteria    1.00e-06 *    3.00e-04 *             o    1.20e-03 *             o  ~
  --------------------------------------------------------------------------------------------- ~
      1    -247.41474661   -2.47e+02      1.14e-02      1.14e-02 o    3.05e-02      3.05e-02 o  ~
  ---------------------------------------------------------------------------------------------

	Writing optimization data to binary file.
	Structure for next step:
	Cartesian Geometry (in Angstrom)
	   AG     0.0000000000   0.0000000000   0.3063826278
	    F     0.0000000000   0.0000000000  -1.6866503824
			--------------------------
			 OPTKING Finished Execution 
			--------------------------

    Structure for next step:
    Molecular point group: c2v
    Full point group: C_inf_v

    Geometry (in Angstrom), charge = 0, multiplicity = 1:

    AG           0.000000000000     0.000000000000     0.300741809149
    F            0.000000000000     0.000000000000    -1.692291208880

gradient() will perform analytic gradient computation.

*** tstart() called on bp1-compute00157.data.bp.acrc.priv
*** at Fri Oct 29 07:49:05 2021

   => Loading Basis Set <=

    Name: DEF2-TZVPPD
    Role: ORBITAL
    Keyword: BASIS
    atoms 1 entry AG         line  2174 (ECP: line  3646) file /work/zw18965/.conda/envs/p4env/share/psi4/basis/def2-tzvppd.gbs 
    atoms 2 entry F          line   257 file /work/zw18965/.conda/envs/p4env/share/psi4/basis/def2-tzvppd.gbs 

    !!!  WARNING: ECP capability is in beta. Please check occupations closely.  !!!


         ---------------------------------------------------------
                                   SCF
               by Justin Turney, Rob Parrish, Andy Simmonett
                          and Daniel G. A. Smith
                              RKS Reference
                       24 Threads, 137329 MiB Core
         ---------------------------------------------------------

  ==> Geometry <==

    Molecular point group: c2v
    Full point group: C_inf_v

    Geometry (in Angstrom), charge = 0, multiplicity = 1:

       Center              X                  Y                   Z               Mass       
    ------------   -----------------  -----------------  -----------------  -----------------
         AG           0.000000000000     0.000000000000     0.300741809149   106.905091600000
         F            0.000000000000     0.000000000000    -1.692291208880    18.998403162730

  Running in c2v symmetry.

  Rotational constants: A = ************  B =      0.26308  C =      0.26308 [cm^-1]
  Rotational constants: A = ************  B =   7886.97579  C =   7886.97579 [MHz]
  Nuclear repulsion =   45.402811797889839

  Charge       = 0
  Multiplicity = 1
  Electrons    = 28
  Nalpha       = 14
  Nbeta        = 14

  ==> Algorithm <==

  SCF Algorithm Type is DF.
  DIIS enabled.
  MOM disabled.
  Fractional occupation disabled.
  Guess Type is READ.
  Energy threshold   = 1.00e-08
  Density threshold  = 1.00e-08
  Integral threshold = 0.00e+00

  ==> Primary Basis <==

  Basis Set: DEF2-TZVPPD
    Blend: DEF2-TZVPPD
    Number of shells: 30
    Number of basis function: 96
    Number of Cartesian functions: 117
    Spherical Harmonics?: true
    Max angular momentum: 4

  Core potential: DEF2-TZVPPD
    Number of shells: 4
    Number of ECP primitives: 14
    Number of ECP core electrons: 28
    Max angular momentum: 3

  ==> DFT Potential <==

   => Composite Functional: GAM <= 

   GAM GGA Minessota Exchange-Correlation Functional

    H.S. Yu, et al., Phys. Chem. Chem. Phys. 17, 12146, 2015


    Deriv               =              1
    GGA                 =           TRUE
    Meta                =          FALSE

    Exchange Hybrid     =          FALSE
    MP2 Hybrid          =          FALSE

   => Exchange Functionals <=

    1.0000     XC_GGA_X_GAM

   => Correlation Functionals <=

    1.0000     XC_GGA_C_GAM

   => Molecular Quadrature <=

    Radial Scheme          =       TREUTLER
    Pruning Scheme         =           FLAT
    Nuclear Scheme         =       TREUTLER

    BS radius alpha        =              1
    Pruning alpha          =              1
    Radial Points          =             75
    Spherical Points       =            302
    Total Points           =          45055
    Total Blocks           =            423
    Max Points             =            255
    Max Functions          =             95

   => Loading Basis Set <=

    Name: (DEF2-TZVPPD AUX)
    Role: JKFIT
    Keyword: DF_BASIS_SCF
    atoms 1 entry AG         line  4369 file /work/zw18965/.conda/envs/p4env/share/psi4/basis/def2-tzvpp-jkfit.gbs 
    atoms 2 entry F          line   383 file /work/zw18965/.conda/envs/p4env/share/psi4/basis/def2-tzvpp-jkfit.gbs 

   => Loading Basis Set <=

    Name: DEF2-TZVPPD
    Role: ORBITAL
    Keyword: BASIS
    atoms 1 entry AG         line  2174 (ECP: line  3646) file /work/zw18965/.conda/envs/p4env/share/psi4/basis/def2-tzvppd.gbs 
    atoms 2 entry F          line   257 file /work/zw18965/.conda/envs/p4env/share/psi4/basis/def2-tzvppd.gbs 

    !!!  WARNING: ECP capability is in beta. Please check occupations closely.  !!!

  Reading orbitals from file 180, no projection.

  ==> Pre-Iterations <==

   -------------------------------------------------------
    Irrep   Nso     Nmo     Nalpha   Nbeta   Ndocc  Nsocc
   -------------------------------------------------------
     A1        41      41       0       0       0       0
     A2        11      11       0       0       0       0
     B1        22      22       0       0       0       0
     B2        22      22       0       0       0       0
   -------------------------------------------------------
    Total      96      96      14      14      14       0
   -------------------------------------------------------

  ==> Integral Setup <==

  DFHelper Memory: AOs need 0.028 GiB; user supplied 100.478 GiB. Using in-core AOs.

  ==> MemDFJK: Density-Fitted J/K Matrices <==

    J tasked:                   Yes
    K tasked:                    No
    wK tasked:                   No
    OpenMP threads:              24
    Memory [MiB]:            102889
    Algorithm:                 Core
    Schwarz Cutoff:           1E-12
    Mask sparsity (%):       0.4557
    Fitting Condition:        1E-10

   => Auxiliary Basis Set <=

  Basis Set: (DEF2-TZVPPD AUX)
    Blend: DEF2-TZVPP-JKFIT
    Number of shells: 74
    Number of basis function: 332
    Number of Cartesian functions: 477
    Spherical Harmonics?: true
    Max angular momentum: 6

  Cached 100.0% of DFT collocation blocks in 0.105 [GiB].

  Minimum eigenvalue in the overlap matrix is 3.5215280035E-03.
  Using Symmetric Orthogonalization.

  SCF Guess: Orbitals guess was supplied from a previous computation.

  ==> Iterations <==

                           Total Energy        Delta E     RMS |[F,P]|

   @DF-RKS iter   0:  -247.41402902039869   -2.47414e+02   4.75235e-04 
   @DF-RKS iter   1:  -247.41499624265307   -9.67222e-04   9.32312e-05 DIIS
   @DF-RKS iter   2:  -247.41492003460311    7.62080e-05   2.86256e-04 DIIS
   @DF-RKS iter   3:  -247.41500271228642   -8.26777e-05   3.72563e-05 DIIS
   @DF-RKS iter   4:  -247.41500410252431   -1.39024e-06   1.17991e-05 DIIS
   @DF-RKS iter   5:  -247.41500420513165   -1.02607e-07   1.11443e-06 DIIS
   @DF-RKS iter   6:  -247.41500420626244   -1.13079e-09   2.80439e-07 DIIS
   @DF-RKS iter   7:  -247.41500420630857   -4.61284e-11   6.54381e-08 DIIS
   @DF-RKS iter   8:  -247.41500420631411   -5.54223e-12   6.09893e-09 DIIS
  Energy and wave function converged.


  ==> Post-Iterations <==

    Orbital Energies [Eh]
    ---------------------

    Doubly Occupied:                                                      

       1A1   -24.109575     2A1    -3.610983     3A1    -2.242695  
       1B2    -2.241035     1B1    -2.241035     4A1    -0.950814  
       5A1    -0.347650     2B2    -0.319098     2B1    -0.319098  
       6A1    -0.306051     1A2    -0.306046     7A1    -0.244461  
       3B1    -0.238760     3B2    -0.238760  

    Virtual:                                                              

       8A1    -0.146422     4B1    -0.015874     4B2    -0.015874  
       9A1     0.029110    10A1     0.085294    11A1     0.144659  
       5B2     0.151573     5B1     0.151573     6B2     0.182443  
       6B1     0.182443    12A1     0.225288    13A1     0.320976  
      14A1     0.354150     2A2     0.354151     7B1     0.443496  
       7B2     0.443496    15A1     0.493825     3A2     0.536258  
      16A1     0.536258     8B1     0.660603     8B2     0.660603  
      17A1     0.661256     9B1     0.769085     9B2     0.769085  
      18A1     1.037723    19A1     1.078472    10B1     1.500315  
      10B2     1.500315    20A1     1.513998     4A2     1.514001  
      11B2     1.526314    11B1     1.526314    21A1     1.591486  
      12B2     1.609456    12B1     1.609456    22A1     1.711903  
      23A1     1.897376    24A1     1.951057     5A2     1.951062  
      13B1     1.964678    13B2     1.964678    25A1     2.000384  
      26A1     2.257381     6A2     2.257400    14B1     2.324254  
      14B2     2.324254    27A1     2.671013    15B1     3.325306  
      15B2     3.325306    28A1     3.625533    29A1     4.050874  
      16B1     4.643742    16B2     4.643742    30A1     4.653890  
       7A2     4.653964    17B2     4.717417    17B1     4.717417  
      31A1     4.903313    32A1     5.387769     8A2     5.387787  
      18B1     5.387867    18B2     5.387867    33A1     5.388887  
       9A2     5.388941    19B2     5.390748    19B1     5.390748  
      34A1     5.445908    35A1     6.817855    10A2     6.817873  
      20B1     6.831292    20B2     6.831292    21B2     6.840590  
      21B1     6.840590    36A1     6.950382    37A1     8.348533  
      11A2     8.348572    22B2     8.379615    22B1     8.379615  
      38A1     8.565705    39A1    33.336331    40A1    56.902545  
      41A1   110.760876  

    Final Occupation by Irrep:
             A1    A2    B1    B2 
    DOCC [     7,    1,    3,    3 ]

  @DF-RKS Final Energy:  -247.41500420631411

   => Energetics <=

    Nuclear Repulsion Energy =             45.4028117978898393
    One-Electron Energy =                -492.7384349323876336
    Two-Electron Energy =                 225.1985975546614895
    DFT Exchange-Correlation Energy =     -25.2779786264778181
    Empirical Dispersion Energy =           0.0000000000000000
    VV10 Nonlocal Energy =                  0.0000000000000000
    Total Energy =                       -247.4150042063141086

Computation Completed


Properties will be evaluated at   0.000000,   0.000000,   0.000000 [a0]

Properties computed using the SCF density matrix

  Nuclear Dipole Moment: [e a0]
     X:     0.0000      Y:     0.0000      Z:   -17.9836

  Electronic Dipole Moment: [e a0]
     X:     0.0000      Y:     0.0000      Z:    20.1002

  Dipole Moment: [e a0]
     X:     0.0000      Y:     0.0000      Z:     2.1166     Total:     2.1166

  Dipole Moment: [D]
     X:     0.0000      Y:     0.0000      Z:     5.3798     Total:     5.3798


*** tstop() called on bp1-compute00157.data.bp.acrc.priv at Fri Oct 29 07:49:07 2021
Module time:
	user time   =      31.77 seconds =       0.53 minutes
	system time =       1.28 seconds =       0.02 minutes
	total time  =          2 seconds =       0.03 minutes
Total time:
	user time   =     364.85 seconds =       6.08 minutes
	system time =      25.02 seconds =       0.42 minutes
	total time  =         38 seconds =       0.63 minutes

*** tstart() called on bp1-compute00157.data.bp.acrc.priv
*** at Fri Oct 29 07:49:07 2021


         ------------------------------------------------------------
                                   SCF GRAD                          
                          Rob Parrish, Justin Turney,                
                       Andy Simmonett, and Alex Sokolov              
         ------------------------------------------------------------

  ==> Geometry <==

    Molecular point group: c2v
    Full point group: C_inf_v

    Geometry (in Angstrom), charge = 0, multiplicity = 1:

       Center              X                  Y                   Z               Mass       
    ------------   -----------------  -----------------  -----------------  -----------------
         AG           0.000000000000     0.000000000000     0.300741809149   106.905091600000
         F            0.000000000000     0.000000000000    -1.692291208880    18.998403162730

  Nuclear repulsion =   45.402811797889839

  ==> Basis Set <==

  Basis Set: DEF2-TZVPPD
    Blend: DEF2-TZVPPD
    Number of shells: 30
    Number of basis function: 96
    Number of Cartesian functions: 117
    Spherical Harmonics?: true
    Max angular momentum: 4

  Core potential: DEF2-TZVPPD
    Number of shells: 4
    Number of ECP primitives: 14
    Number of ECP core electrons: 28
    Max angular momentum: 3

  ==> DFJKGrad: Density-Fitted SCF Gradients <==

    Gradient:                    1
    J tasked:                  Yes
    K tasked:                   No
    wK tasked:                  No
    OpenMP threads:             24
    Integrals threads:          24
    Memory [MiB]:           102996
    Schwarz Cutoff:          0E+00
    Fitting Condition:       1E-10

   => Auxiliary Basis Set <=

  Basis Set: (DEF2-TZVPPD AUX)
    Blend: DEF2-TZVPP-JKFIT
    Number of shells: 74
    Number of basis function: 332
    Number of Cartesian functions: 477
    Spherical Harmonics?: true
    Max angular momentum: 6

  ==> DFT Potential <==

   => Composite Functional: GAM <= 

   GAM GGA Minessota Exchange-Correlation Functional

    H.S. Yu, et al., Phys. Chem. Chem. Phys. 17, 12146, 2015


    Deriv               =              1
    GGA                 =           TRUE
    Meta                =          FALSE

    Exchange Hybrid     =          FALSE
    MP2 Hybrid          =          FALSE

   => Exchange Functionals <=

    1.0000     XC_GGA_X_GAM

   => Correlation Functionals <=

    1.0000     XC_GGA_C_GAM

   => Molecular Quadrature <=

    Radial Scheme          =       TREUTLER
    Pruning Scheme         =           FLAT
    Nuclear Scheme         =       TREUTLER

    BS radius alpha        =              1
    Pruning alpha          =              1
    Radial Points          =             75
    Spherical Points       =            302
    Total Points           =          45055
    Total Blocks           =            423
    Max Points             =            255
    Max Functions          =             95


  -Total Gradient:
     Atom            X                  Y                   Z
    ------   -----------------  -----------------  -----------------
       1        0.000000000000    -0.000000000000    -0.081501384410
       2        0.000000000000     0.000000000000     0.080666238094


*** tstop() called on bp1-compute00157.data.bp.acrc.priv at Fri Oct 29 07:49:12 2021
Module time:
	user time   =      31.35 seconds =       0.52 minutes
	system time =       2.74 seconds =       0.05 minutes
	total time  =          5 seconds =       0.08 minutes
Total time:
	user time   =     396.22 seconds =       6.60 minutes
	system time =      27.76 seconds =       0.46 minutes
	total time  =         43 seconds =       0.72 minutes


  ==> Adding ECP gradient terms (computed numerically) <==

  -ECP Gradient:
     Atom            X                  Y                   Z
    ------   -----------------  -----------------  -----------------
       1        0.000000000000    -0.000000000000     0.074318167194
       2        0.000000000000    -0.000000000000    -0.074318167197


  -Total Gradient:
     Atom            X                  Y                   Z
    ------   -----------------  -----------------  -----------------
       1        0.000000000000    -0.000000000000    -0.007183217216
       2        0.000000000000    -0.000000000000     0.006348070898


			-----------------------------------------
			 OPTKING 2.0: for geometry optimizations 
			  - R.A. King,  Bethel University        
			-----------------------------------------
	At level 1: Red. Int., RFO, no backsteps, dynamic trust

	Previous internal coordinate definitions found.
	---Fragment 1 Geometry and Gradient---
	 AG          0.0000000000        0.0000000000        0.5683196538
	 F           0.0000000000        0.0000000000       -3.1979669093
	             0.0000000000       -0.0000000000       -0.0071832172
	             0.0000000000       -0.0000000000        0.0063480709

	---Fragment 1 Intrafragment Coordinates---
	 - Coordinate -           - BOHR/RAD -       - ANG/DEG -
	 R(1,2)           =         3.766287	       1.993033

	Current energy   :      -247.4150042063

	Energy change for the previous step:
		Projected    :         0.0001172145
		Actual       :        -0.0002575961

	Performing BFGS update.
	Previous computed or guess Hessian on step 1.
	Steps to be used in Hessian update: 1
	Taking RFO optimization step.
	Going to follow RFO solution 1.
	Using RFO vector 1.
	Norm of target step-size    0.04425
	Projected energy change by RFO approximation:         0.0006784355

	Back-transformation to cartesian coordinates...
	Successfully converged to displaced geometry.

	--- Internal Coordinate Step in ANG or DEG, aJ/ANG or AJ/DEG ---
	 ---------------------------------------------------------------------------
	   Coordinate                Previous        Force       Change         New 
	   ----------                --------       ------       ------       ------
	    1 R(1,2)          =      1.993033     0.055740     0.023418     2.016451
	 ---------------------------------------------------------------------------
	Successfully symmetrized geometry.

  ==> Convergence Check <==

  Measures of convergence in internal coordinates in au.
  Criteria marked as inactive (o), active & met (*), and active & unmet ( ).
  ---------------------------------------------------------------------------------------------
   Step     Total Energy     Delta E     MAX Force     RMS Force      MAX Disp      RMS Disp   
  ---------------------------------------------------------------------------------------------
    Convergence Criteria    1.00e-06 *    3.00e-04 *             o    1.20e-03 *             o
  ---------------------------------------------------------------------------------------------
      2    -247.41500421   -2.58e-04      6.77e-03      6.77e-03 o    4.43e-02      4.43e-02 o  ~
  ---------------------------------------------------------------------------------------------

	Writing optimization data to binary file.
	Structure for next step:
	Cartesian Geometry (in Angstrom)
	   AG     0.0000000000   0.0000000000   0.3124506484
	    F     0.0000000000   0.0000000000  -1.7040000427
			--------------------------
			 OPTKING Finished Execution 
			--------------------------

    Structure for next step:
    Molecular point group: c2v
    Full point group: C_inf_v

    Geometry (in Angstrom), charge = 0, multiplicity = 1:

    AG           0.000000000000     0.000000000000     0.304275456457
    F            0.000000000000     0.000000000000    -1.712175242601

gradient() will perform analytic gradient computation.

*** tstart() called on bp1-compute00157.data.bp.acrc.priv
*** at Fri Oct 29 07:49:38 2021

   => Loading Basis Set <=

    Name: DEF2-TZVPPD
    Role: ORBITAL
    Keyword: BASIS
    atoms 1 entry AG         line  2174 (ECP: line  3646) file /work/zw18965/.conda/envs/p4env/share/psi4/basis/def2-tzvppd.gbs 
    atoms 2 entry F          line   257 file /work/zw18965/.conda/envs/p4env/share/psi4/basis/def2-tzvppd.gbs 

    !!!  WARNING: ECP capability is in beta. Please check occupations closely.  !!!


         ---------------------------------------------------------
                                   SCF
               by Justin Turney, Rob Parrish, Andy Simmonett
                          and Daniel G. A. Smith
                              RKS Reference
                       24 Threads, 137329 MiB Core
         ---------------------------------------------------------

  ==> Geometry <==

    Molecular point group: c2v
    Full point group: C_inf_v

    Geometry (in Angstrom), charge = 0, multiplicity = 1:

       Center              X                  Y                   Z               Mass       
    ------------   -----------------  -----------------  -----------------  -----------------
         AG           0.000000000000     0.000000000000     0.304275456457   106.905091600000
         F            0.000000000000     0.000000000000    -1.712175242601    18.998403162730

  Running in c2v symmetry.

  Rotational constants: A = ************  B =      0.25701  C =      0.25701 [cm^-1]
  Rotational constants: A = ************  B =   7704.85160  C =   7704.85160 [MHz]
  Nuclear repulsion =   44.875534555257424

  Charge       = 0
  Multiplicity = 1
  Electrons    = 28
  Nalpha       = 14
  Nbeta        = 14

  ==> Algorithm <==

  SCF Algorithm Type is DF.
  DIIS enabled.
  MOM disabled.
  Fractional occupation disabled.
  Guess Type is READ.
  Energy threshold   = 1.00e-08
  Density threshold  = 1.00e-08
  Integral threshold = 0.00e+00

  ==> Primary Basis <==

  Basis Set: DEF2-TZVPPD
    Blend: DEF2-TZVPPD
    Number of shells: 30
    Number of basis function: 96
    Number of Cartesian functions: 117
    Spherical Harmonics?: true
    Max angular momentum: 4

  Core potential: DEF2-TZVPPD
    Number of shells: 4
    Number of ECP primitives: 14
    Number of ECP core electrons: 28
    Max angular momentum: 3

  ==> DFT Potential <==

   => Composite Functional: GAM <= 

   GAM GGA Minessota Exchange-Correlation Functional

    H.S. Yu, et al., Phys. Chem. Chem. Phys. 17, 12146, 2015


    Deriv               =              1
    GGA                 =           TRUE
    Meta                =          FALSE

    Exchange Hybrid     =          FALSE
    MP2 Hybrid          =          FALSE

   => Exchange Functionals <=

    1.0000     XC_GGA_X_GAM

   => Correlation Functionals <=

    1.0000     XC_GGA_C_GAM

   => Molecular Quadrature <=

    Radial Scheme          =       TREUTLER
    Pruning Scheme         =           FLAT
    Nuclear Scheme         =       TREUTLER

    BS radius alpha        =              1
    Pruning alpha          =              1
    Radial Points          =             75
    Spherical Points       =            302
    Total Points           =          45055
    Total Blocks           =            424
    Max Points             =            255
    Max Functions          =             95

   => Loading Basis Set <=

    Name: (DEF2-TZVPPD AUX)
    Role: JKFIT
    Keyword: DF_BASIS_SCF
    atoms 1 entry AG         line  4369 file /work/zw18965/.conda/envs/p4env/share/psi4/basis/def2-tzvpp-jkfit.gbs 
    atoms 2 entry F          line   383 file /work/zw18965/.conda/envs/p4env/share/psi4/basis/def2-tzvpp-jkfit.gbs 

   => Loading Basis Set <=

    Name: DEF2-TZVPPD
    Role: ORBITAL
    Keyword: BASIS
    atoms 1 entry AG         line  2174 (ECP: line  3646) file /work/zw18965/.conda/envs/p4env/share/psi4/basis/def2-tzvppd.gbs 
    atoms 2 entry F          line   257 file /work/zw18965/.conda/envs/p4env/share/psi4/basis/def2-tzvppd.gbs 

    !!!  WARNING: ECP capability is in beta. Please check occupations closely.  !!!

  Reading orbitals from file 180, no projection.

  ==> Pre-Iterations <==

   -------------------------------------------------------
    Irrep   Nso     Nmo     Nalpha   Nbeta   Ndocc  Nsocc
   -------------------------------------------------------
     A1        41      41       0       0       0       0
     A2        11      11       0       0       0       0
     B1        22      22       0       0       0       0
     B2        22      22       0       0       0       0
   -------------------------------------------------------
    Total      96      96      14      14      14       0
   -------------------------------------------------------

  ==> Integral Setup <==

  DFHelper Memory: AOs need 0.028 GiB; user supplied 100.478 GiB. Using in-core AOs.

  ==> MemDFJK: Density-Fitted J/K Matrices <==

    J tasked:                   Yes
    K tasked:                    No
    wK tasked:                   No
    OpenMP threads:              24
    Memory [MiB]:            102889
    Algorithm:                 Core
    Schwarz Cutoff:           1E-12
    Mask sparsity (%):       0.4774
    Fitting Condition:        1E-10

   => Auxiliary Basis Set <=

  Basis Set: (DEF2-TZVPPD AUX)
    Blend: DEF2-TZVPP-JKFIT
    Number of shells: 74
    Number of basis function: 332
    Number of Cartesian functions: 477
    Spherical Harmonics?: true
    Max angular momentum: 6

  Cached 100.0% of DFT collocation blocks in 0.105 [GiB].

  Minimum eigenvalue in the overlap matrix is 3.7169140616E-03.
  Using Symmetric Orthogonalization.

  SCF Guess: Orbitals guess was supplied from a previous computation.

  ==> Iterations <==

                           Total Energy        Delta E     RMS |[F,P]|

   @DF-RKS iter   0:  -247.41382171847363   -2.47414e+02   6.60792e-04 
   @DF-RKS iter   1:  -247.41512864450254   -1.30693e-03   1.29472e-04 DIIS
   @DF-RKS iter   2:  -247.41497781764633    1.50827e-04   4.00793e-04 DIIS
   @DF-RKS iter   3:  -247.41514100903254   -1.63191e-04   5.35923e-05 DIIS
   @DF-RKS iter   4:  -247.41514390845617   -2.89942e-06   1.65063e-05 DIIS
   @DF-RKS iter   5:  -247.41514410853162   -2.00075e-07   1.65137e-06 DIIS
   @DF-RKS iter   6:  -247.41514411100115   -2.46953e-09   3.98814e-07 DIIS
   @DF-RKS iter   7:  -247.41514411109731   -9.61506e-11   8.63881e-08 DIIS
   @DF-RKS iter   8:  -247.41514411110700   -9.69180e-12   9.54866e-09 DIIS
  Energy and wave function converged.


  ==> Post-Iterations <==

    Orbital Energies [Eh]
    ---------------------

    Doubly Occupied:                                                      

       1A1   -24.107954     2A1    -3.611586     3A1    -2.243008  
       1B1    -2.241795     1B2    -2.241795     4A1    -0.947670  
       5A1    -0.344809     2B1    -0.318162     2B2    -0.318162  
       6A1    -0.306971     1A2    -0.306966     7A1    -0.245468  
       3B2    -0.237936     3B1    -0.237936  

    Virtual:                                                              

       8A1    -0.147827     4B2    -0.016559     4B1    -0.016559  
       9A1     0.028120    10A1     0.084765    11A1     0.144785  
       5B2     0.151710     5B1     0.151710     6B1     0.181886  
       6B2     0.181886    12A1     0.223610    13A1     0.318830  
      14A1     0.353717     2A2     0.353719     7B1     0.441483  
       7B2     0.441483    15A1     0.494707     3A2     0.536466  
      16A1     0.536466    17A1     0.660512     8B1     0.661112  
       8B2     0.661112     9B2     0.767437     9B1     0.767437  
      18A1     1.037865    19A1     1.072666    10B2     1.499202  
      10B1     1.499202    20A1     1.512239     4A2     1.512242  
      11B1     1.525905    11B2     1.525905    21A1     1.591205  
      12B1     1.607501    12B2     1.607501    22A1     1.716946  
      23A1     1.894735    24A1     1.950313     5A2     1.950317  
      13B1     1.968674    13B2     1.968674    25A1     2.003308  
      26A1     2.259552     6A2     2.259572    14B1     2.319395  
      14B2     2.319395    27A1     2.642248    15B2     3.325988  
      15B1     3.325988    28A1     3.619856    29A1     4.053601  
      16B2     4.642912    16B1     4.642912    30A1     4.652678  
       7A2     4.652747    17B1     4.713958    17B2     4.713958  
      31A1     4.890782    18B1     5.387014    18B2     5.387014  
      32A1     5.387070     8A2     5.387085    33A1     5.387820  
       9A2     5.387904    19B2     5.389907    19B1     5.389907  
      34A1     5.433914    35A1     6.820536    10A2     6.820570  
      20B1     6.833791    20B2     6.833791    21B1     6.838667  
      21B2     6.838667    36A1     6.940163    37A1     8.350616  
      11A2     8.350638    22B1     8.378456    22B2     8.378456  
      38A1     8.545396    39A1    33.334547    40A1    56.899242  
      41A1   110.759967  

    Final Occupation by Irrep:
             A1    A2    B1    B2 
    DOCC [     7,    1,    3,    3 ]

  @DF-RKS Final Energy:  -247.41514411110700

   => Energetics <=

    Nuclear Repulsion Energy =             44.8755345552574241
    One-Electron Energy =                -491.6973095352303744
    Two-Electron Energy =                 224.6818873671050483
    DFT Exchange-Correlation Energy =     -25.2752564982391092
    Empirical Dispersion Energy =           0.0000000000000000
    VV10 Nonlocal Energy =                  0.0000000000000000
    Total Energy =                       -247.4151441111069971

Computation Completed


Properties will be evaluated at   0.000000,   0.000000,   0.000000 [a0]

Properties computed using the SCF density matrix

  Nuclear Dipole Moment: [e a0]
     X:     0.0000      Y:     0.0000      Z:   -18.1949

  Electronic Dipole Moment: [e a0]
     X:     0.0000      Y:     0.0000      Z:    20.3479

  Dipole Moment: [e a0]
     X:     0.0000      Y:     0.0000      Z:     2.1530     Total:     2.1530

  Dipole Moment: [D]
     X:     0.0000      Y:     0.0000      Z:     5.4723     Total:     5.4723


*** tstop() called on bp1-compute00157.data.bp.acrc.priv at Fri Oct 29 07:49:40 2021
Module time:
	user time   =      31.03 seconds =       0.52 minutes
	system time =       1.23 seconds =       0.02 minutes
	total time  =          2 seconds =       0.03 minutes
Total time:
	user time   =     676.21 seconds =      11.27 minutes
	system time =      40.13 seconds =       0.67 minutes
	total time  =         71 seconds =       1.18 minutes

*** tstart() called on bp1-compute00157.data.bp.acrc.priv
*** at Fri Oct 29 07:49:40 2021


         ------------------------------------------------------------
                                   SCF GRAD                          
                          Rob Parrish, Justin Turney,                
                       Andy Simmonett, and Alex Sokolov              
         ------------------------------------------------------------

  ==> Geometry <==

    Molecular point group: c2v
    Full point group: C_inf_v

    Geometry (in Angstrom), charge = 0, multiplicity = 1:

       Center              X                  Y                   Z               Mass       
    ------------   -----------------  -----------------  -----------------  -----------------
         AG           0.000000000000     0.000000000000     0.304275456457   106.905091600000
         F            0.000000000000     0.000000000000    -1.712175242601    18.998403162730

  Nuclear repulsion =   44.875534555257424

  ==> Basis Set <==

  Basis Set: DEF2-TZVPPD
    Blend: DEF2-TZVPPD
    Number of shells: 30
    Number of basis function: 96
    Number of Cartesian functions: 117
    Spherical Harmonics?: true
    Max angular momentum: 4

  Core potential: DEF2-TZVPPD
    Number of shells: 4
    Number of ECP primitives: 14
    Number of ECP core electrons: 28
    Max angular momentum: 3

  ==> DFJKGrad: Density-Fitted SCF Gradients <==

    Gradient:                    1
    J tasked:                  Yes
    K tasked:                   No
    wK tasked:                  No
    OpenMP threads:             24
    Integrals threads:          24
    Memory [MiB]:           102996
    Schwarz Cutoff:          0E+00
    Fitting Condition:       1E-10

   => Auxiliary Basis Set <=

  Basis Set: (DEF2-TZVPPD AUX)
    Blend: DEF2-TZVPP-JKFIT
    Number of shells: 74
    Number of basis function: 332
    Number of Cartesian functions: 477
    Spherical Harmonics?: true
    Max angular momentum: 6

  ==> DFT Potential <==

   => Composite Functional: GAM <= 

   GAM GGA Minessota Exchange-Correlation Functional

    H.S. Yu, et al., Phys. Chem. Chem. Phys. 17, 12146, 2015


    Deriv               =              1
    GGA                 =           TRUE
    Meta                =          FALSE

    Exchange Hybrid     =          FALSE
    MP2 Hybrid          =          FALSE

   => Exchange Functionals <=

    1.0000     XC_GGA_X_GAM

   => Correlation Functionals <=

    1.0000     XC_GGA_C_GAM

   => Molecular Quadrature <=

    Radial Scheme          =       TREUTLER
    Pruning Scheme         =           FLAT
    Nuclear Scheme         =       TREUTLER

    BS radius alpha        =              1
    Pruning alpha          =              1
    Radial Points          =             75
    Spherical Points       =            302
    Total Points           =          45055
    Total Blocks           =            424
    Max Points             =            255
    Max Functions          =             95


  -Total Gradient:
     Atom            X                  Y                   Z
    ------   -----------------  -----------------  -----------------
       1       -0.000000000000    -0.000000000000    -0.070315840127
       2       -0.000000000000    -0.000000000000     0.069162643441


*** tstop() called on bp1-compute00157.data.bp.acrc.priv at Fri Oct 29 07:49:45 2021
Module time:
	user time   =      31.95 seconds =       0.53 minutes
	system time =       2.76 seconds =       0.05 minutes
	total time  =          5 seconds =       0.08 minutes
Total time:
	user time   =     708.19 seconds =      11.80 minutes
	system time =      42.89 seconds =       0.71 minutes
	total time  =         76 seconds =       1.27 minutes


  ==> Adding ECP gradient terms (computed numerically) <==

  -ECP Gradient:
     Atom            X                  Y                   Z
    ------   -----------------  -----------------  -----------------
       1        0.000000000000     0.000000000000     0.069123824842
       2        0.000000000000     0.000000000000    -0.069123824848


  -Total Gradient:
     Atom            X                  Y                   Z
    ------   -----------------  -----------------  -----------------
       1        0.000000000000    -0.000000000000    -0.001192015285
       2        0.000000000000    -0.000000000000     0.000038818593


			-----------------------------------------
			 OPTKING 2.0: for geometry optimizations 
			  - R.A. King,  Bethel University        
			-----------------------------------------
	At level 1: Red. Int., RFO, no backsteps, dynamic trust

	Previous internal coordinate definitions found.
	---Fragment 1 Geometry and Gradient---
	 AG          0.0000000000        0.0000000000        0.5749972794
	 F           0.0000000000        0.0000000000       -3.2355422873
	             0.0000000000       -0.0000000000       -0.0011920153
	             0.0000000000       -0.0000000000        0.0000388186

	---Fragment 1 Intrafragment Coordinates---
	 - Coordinate -           - BOHR/RAD -       - ANG/DEG -
	 R(1,2)           =         3.810540	       2.016451

	Current energy   :      -247.4151441111

	Energy change for the previous step:
		Projected    :         0.0006784355
		Actual       :        -0.0001399048

	Performing BFGS update.
	Previous computed or guess Hessian on step 1.
	Steps to be used in Hessian update: 2 1
	Taking RFO optimization step.
	Going to follow RFO solution 1.
	Using RFO vector 1.
	Norm of target step-size    0.00426
	Projected energy change by RFO approximation:         0.0000064442

	Back-transformation to cartesian coordinates...
	Successfully converged to displaced geometry.

	--- Internal Coordinate Step in ANG or DEG, aJ/ANG or AJ/DEG ---
	 ---------------------------------------------------------------------------
	   Coordinate                Previous        Force       Change         New 
	   ----------                --------       ------       ------       ------
	    1 R(1,2)          =      2.016451     0.005070     0.002253     2.018704
	 ---------------------------------------------------------------------------
	Successfully symmetrized geometry.

  ==> Convergence Check <==

  Measures of convergence in internal coordinates in au.
  Criteria marked as inactive (o), active & met (*), and active & unmet ( ).
  ---------------------------------------------------------------------------------------------
   Step     Total Energy     Delta E     MAX Force     RMS Force      MAX Disp      RMS Disp   
  ---------------------------------------------------------------------------------------------
    Convergence Criteria    1.00e-06 *    3.00e-04 *             o    1.20e-03 *             o
  ---------------------------------------------------------------------------------------------
      3    -247.41514411   -1.40e-04      6.15e-04      6.15e-04 o    4.26e-03      4.26e-03 o  ~
  ---------------------------------------------------------------------------------------------

	Writing optimization data to binary file.
	Structure for next step:
	Cartesian Geometry (in Angstrom)
	   AG     0.0000000000   0.0000000000   0.3054020339
	    F     0.0000000000   0.0000000000  -1.7133018145
			--------------------------
			 OPTKING Finished Execution 
			--------------------------

    Structure for next step:
    Molecular point group: c2v
    Full point group: C_inf_v

    Geometry (in Angstrom), charge = 0, multiplicity = 1:

    AG           0.000000000000     0.000000000000     0.304615450123
    F            0.000000000000     0.000000000000    -1.714088406231

gradient() will perform analytic gradient computation.

*** tstart() called on bp1-compute00157.data.bp.acrc.priv
*** at Fri Oct 29 07:50:10 2021

   => Loading Basis Set <=

    Name: DEF2-TZVPPD
    Role: ORBITAL
    Keyword: BASIS
    atoms 1 entry AG         line  2174 (ECP: line  3646) file /work/zw18965/.conda/envs/p4env/share/psi4/basis/def2-tzvppd.gbs 
    atoms 2 entry F          line   257 file /work/zw18965/.conda/envs/p4env/share/psi4/basis/def2-tzvppd.gbs 

    !!!  WARNING: ECP capability is in beta. Please check occupations closely.  !!!


         ---------------------------------------------------------
                                   SCF
               by Justin Turney, Rob Parrish, Andy Simmonett
                          and Daniel G. A. Smith
                              RKS Reference
                       24 Threads, 137329 MiB Core
         ---------------------------------------------------------

  ==> Geometry <==

    Molecular point group: c2v
    Full point group: C_inf_v

    Geometry (in Angstrom), charge = 0, multiplicity = 1:

       Center              X                  Y                   Z               Mass       
    ------------   -----------------  -----------------  -----------------  -----------------
         AG           0.000000000000     0.000000000000     0.304615450123   106.905091600000
         F            0.000000000000     0.000000000000    -1.714088406231    18.998403162730

  Running in c2v symmetry.

  Rotational constants: A = ************  B =      0.25643  C =      0.25643 [cm^-1]
  Rotational constants: A = ************  B =   7687.66181  C =   7687.66181 [MHz]
  Nuclear repulsion =   44.825447150047452

  Charge       = 0
  Multiplicity = 1
  Electrons    = 28
  Nalpha       = 14
  Nbeta        = 14

  ==> Algorithm <==

  SCF Algorithm Type is DF.
  DIIS enabled.
  MOM disabled.
  Fractional occupation disabled.
  Guess Type is READ.
  Energy threshold   = 1.00e-08
  Density threshold  = 1.00e-08
  Integral threshold = 0.00e+00

  ==> Primary Basis <==

  Basis Set: DEF2-TZVPPD
    Blend: DEF2-TZVPPD
    Number of shells: 30
    Number of basis function: 96
    Number of Cartesian functions: 117
    Spherical Harmonics?: true
    Max angular momentum: 4

  Core potential: DEF2-TZVPPD
    Number of shells: 4
    Number of ECP primitives: 14
    Number of ECP core electrons: 28
    Max angular momentum: 3

  ==> DFT Potential <==

   => Composite Functional: GAM <= 

   GAM GGA Minessota Exchange-Correlation Functional

    H.S. Yu, et al., Phys. Chem. Chem. Phys. 17, 12146, 2015


    Deriv               =              1
    GGA                 =           TRUE
    Meta                =          FALSE

    Exchange Hybrid     =          FALSE
    MP2 Hybrid          =          FALSE

   => Exchange Functionals <=

    1.0000     XC_GGA_X_GAM

   => Correlation Functionals <=

    1.0000     XC_GGA_C_GAM

   => Molecular Quadrature <=

    Radial Scheme          =       TREUTLER
    Pruning Scheme         =           FLAT
    Nuclear Scheme         =       TREUTLER

    BS radius alpha        =              1
    Pruning alpha          =              1
    Radial Points          =             75
    Spherical Points       =            302
    Total Points           =          45055
    Total Blocks           =            424
    Max Points             =            255
    Max Functions          =             95

   => Loading Basis Set <=

    Name: (DEF2-TZVPPD AUX)
    Role: JKFIT
    Keyword: DF_BASIS_SCF
    atoms 1 entry AG         line  4369 file /work/zw18965/.conda/envs/p4env/share/psi4/basis/def2-tzvpp-jkfit.gbs 
    atoms 2 entry F          line   383 file /work/zw18965/.conda/envs/p4env/share/psi4/basis/def2-tzvpp-jkfit.gbs 

   => Loading Basis Set <=

    Name: DEF2-TZVPPD
    Role: ORBITAL
    Keyword: BASIS
    atoms 1 entry AG         line  2174 (ECP: line  3646) file /work/zw18965/.conda/envs/p4env/share/psi4/basis/def2-tzvppd.gbs 
    atoms 2 entry F          line   257 file /work/zw18965/.conda/envs/p4env/share/psi4/basis/def2-tzvppd.gbs 

    !!!  WARNING: ECP capability is in beta. Please check occupations closely.  !!!

  Reading orbitals from file 180, no projection.

  ==> Pre-Iterations <==

   -------------------------------------------------------
    Irrep   Nso     Nmo     Nalpha   Nbeta   Ndocc  Nsocc
   -------------------------------------------------------
     A1        41      41       0       0       0       0
     A2        11      11       0       0       0       0
     B1        22      22       0       0       0       0
     B2        22      22       0       0       0       0
   -------------------------------------------------------
    Total      96      96      14      14      14       0
   -------------------------------------------------------

  ==> Integral Setup <==

  DFHelper Memory: AOs need 0.028 GiB; user supplied 100.478 GiB. Using in-core AOs.

  ==> MemDFJK: Density-Fitted J/K Matrices <==

    J tasked:                   Yes
    K tasked:                    No
    wK tasked:                   No
    OpenMP threads:              24
    Memory [MiB]:            102889
    Algorithm:                 Core
    Schwarz Cutoff:           1E-12
    Mask sparsity (%):       0.5208
    Fitting Condition:        1E-10

   => Auxiliary Basis Set <=

  Basis Set: (DEF2-TZVPPD AUX)
    Blend: DEF2-TZVPP-JKFIT
    Number of shells: 74
    Number of basis function: 332
    Number of Cartesian functions: 477
    Spherical Harmonics?: true
    Max angular momentum: 6

  Cached 100.0% of DFT collocation blocks in 0.105 [GiB].

  Minimum eigenvalue in the overlap matrix is 3.7361973914E-03.
  Using Symmetric Orthogonalization.

  SCF Guess: Orbitals guess was supplied from a previous computation.

  ==> Iterations <==

                           Total Energy        Delta E     RMS |[F,P]|

   @DF-RKS iter   0:  -247.41500773368861   -2.47415e+02   6.18647e-05 
   @DF-RKS iter   1:  -247.41514364808685   -1.35914e-04   1.19549e-05 DIIS
   @DF-RKS iter   2:  -247.41514236827618    1.27981e-06   3.69014e-05 DIIS
   @DF-RKS iter   3:  -247.41514374895280   -1.38068e-06   5.32502e-06 DIIS
   @DF-RKS iter   4:  -247.41514377779785   -2.88451e-08   1.58560e-06 DIIS
   @DF-RKS iter   5:  -247.41514377964032   -1.84247e-09   1.64573e-07 DIIS
   @DF-RKS iter   6:  -247.41514377966479   -2.44711e-11   3.72384e-08 DIIS
   @DF-RKS iter   7:  -247.41514377966547   -6.82121e-13   1.03612e-08 DIIS
   @DF-RKS iter   8:  -247.41514377966587   -3.97904e-13   7.23200e-10 DIIS
  Energy and wave function converged.


  ==> Post-Iterations <==

    Orbital Energies [Eh]
    ---------------------

    Doubly Occupied:                                                      

       1A1   -24.107802     2A1    -3.611648     3A1    -2.243044  
       1B1    -2.241871     1B2    -2.241871     4A1    -0.947377  
       5A1    -0.344548     2B1    -0.318085     2B2    -0.318085  
       6A1    -0.307062     1A2    -0.307057     7A1    -0.245560  
       3B1    -0.237852     3B2    -0.237852  

    Virtual:                                                              

       8A1    -0.147961     4B2    -0.016626     4B1    -0.016626  
       9A1     0.028023    10A1     0.084714    11A1     0.144796  
       5B1     0.151722     5B2     0.151722     6B2     0.181832  
       6B1     0.181832    12A1     0.223448    13A1     0.318627  
      14A1     0.353675     2A2     0.353676     7B2     0.441287  
       7B1     0.441287    15A1     0.494788     3A2     0.536485  
      16A1     0.536486    17A1     0.660446     8B2     0.661154  
       8B1     0.661154     9B1     0.767287     9B2     0.767287  
      18A1     1.037860    19A1     1.072112    10B2     1.499093  
      10B1     1.499093    20A1     1.512069     4A2     1.512073  
      11B1     1.525860    11B2     1.525860    21A1     1.591177  
      12B1     1.607292    12B2     1.607292    22A1     1.717341  
      23A1     1.894601    24A1     1.950238     5A2     1.950242  
      13B1     1.969044    13B2     1.969044    25A1     2.003622  
      26A1     2.259756     6A2     2.259775    14B2     2.318973  
      14B1     2.318973    27A1     2.639504    15B1     3.326052  
      15B2     3.326052    28A1     3.619357    29A1     4.053852  
      16B2     4.642830    16B1     4.642830    30A1     4.652560  
       7A2     4.652628    17B2     4.713632    17B1     4.713632  
      31A1     4.889615    18B2     5.386929    18B1     5.386929  
      32A1     5.386999     8A2     5.387014    33A1     5.387716  
       9A2     5.387802    19B2     5.389826    19B1     5.389826  
      34A1     5.432870    35A1     6.820789    10A2     6.820824  
      20B1     6.834024    20B2     6.834024    21B1     6.838516  
      21B2     6.838516    36A1     6.939224    37A1     8.350811  
      11A2     8.350831    22B2     8.378371    22B1     8.378371  
      38A1     8.543528    39A1    33.334416    40A1    56.898950  
      41A1   110.759889  

    Final Occupation by Irrep:
             A1    A2    B1    B2 
    DOCC [     7,    1,    3,    3 ]

  @DF-RKS Final Energy:  -247.41514377966587

   => Energetics <=

    Nuclear Repulsion Energy =             44.8254471500474523
    One-Electron Energy =                -491.5982842554724357
    Two-Electron Energy =                 224.6326937467371181
    DFT Exchange-Correlation Energy =     -25.2750004209780315
    Empirical Dispersion Energy =           0.0000000000000000
    VV10 Nonlocal Energy =                  0.0000000000000000
    Total Energy =                       -247.4151437796658684

Computation Completed


Properties will be evaluated at   0.000000,   0.000000,   0.000000 [a0]

Properties computed using the SCF density matrix

  Nuclear Dipole Moment: [e a0]
     X:     0.0000      Y:     0.0000      Z:   -18.2153

  Electronic Dipole Moment: [e a0]
     X:     0.0000      Y:     0.0000      Z:    20.3717

  Dipole Moment: [e a0]
     X:     0.0000      Y:     0.0000      Z:     2.1565     Total:     2.1565

  Dipole Moment: [D]
     X:     0.0000      Y:     0.0000      Z:     5.4812     Total:     5.4812


*** tstop() called on bp1-compute00157.data.bp.acrc.priv at Fri Oct 29 07:50:12 2021
Module time:
	user time   =      30.86 seconds =       0.51 minutes
	system time =       1.21 seconds =       0.02 minutes
	total time  =          2 seconds =       0.03 minutes
Total time:
	user time   =     988.76 seconds =      16.48 minutes
	system time =      54.76 seconds =       0.91 minutes
	total time  =        103 seconds =       1.72 minutes

*** tstart() called on bp1-compute00157.data.bp.acrc.priv
*** at Fri Oct 29 07:50:12 2021


         ------------------------------------------------------------
                                   SCF GRAD                          
                          Rob Parrish, Justin Turney,                
                       Andy Simmonett, and Alex Sokolov              
         ------------------------------------------------------------

  ==> Geometry <==

    Molecular point group: c2v
    Full point group: C_inf_v

    Geometry (in Angstrom), charge = 0, multiplicity = 1:

       Center              X                  Y                   Z               Mass       
    ------------   -----------------  -----------------  -----------------  -----------------
         AG           0.000000000000     0.000000000000     0.304615450123   106.905091600000
         F            0.000000000000     0.000000000000    -1.714088406231    18.998403162730

  Nuclear repulsion =   44.825447150047452

  ==> Basis Set <==

  Basis Set: DEF2-TZVPPD
    Blend: DEF2-TZVPPD
    Number of shells: 30
    Number of basis function: 96
    Number of Cartesian functions: 117
    Spherical Harmonics?: true
    Max angular momentum: 4

  Core potential: DEF2-TZVPPD
    Number of shells: 4
    Number of ECP primitives: 14
    Number of ECP core electrons: 28
    Max angular momentum: 3

  ==> DFJKGrad: Density-Fitted SCF Gradients <==

    Gradient:                    1
    J tasked:                  Yes
    K tasked:                   No
    wK tasked:                  No
    OpenMP threads:             24
    Integrals threads:          24
    Memory [MiB]:           102996
    Schwarz Cutoff:          0E+00
    Fitting Condition:       1E-10

   => Auxiliary Basis Set <=

  Basis Set: (DEF2-TZVPPD AUX)
    Blend: DEF2-TZVPP-JKFIT
    Number of shells: 74
    Number of basis function: 332
    Number of Cartesian functions: 477
    Spherical Harmonics?: true
    Max angular momentum: 6

  ==> DFT Potential <==

   => Composite Functional: GAM <= 

   GAM GGA Minessota Exchange-Correlation Functional

    H.S. Yu, et al., Phys. Chem. Chem. Phys. 17, 12146, 2015


    Deriv               =              1
    GGA                 =           TRUE
    Meta                =          FALSE

    Exchange Hybrid     =          FALSE
    MP2 Hybrid          =          FALSE

   => Exchange Functionals <=

    1.0000     XC_GGA_X_GAM

   => Correlation Functionals <=

    1.0000     XC_GGA_C_GAM

   => Molecular Quadrature <=

    Radial Scheme          =       TREUTLER
    Pruning Scheme         =           FLAT
    Nuclear Scheme         =       TREUTLER

    BS radius alpha        =              1
    Pruning alpha          =              1
    Radial Points          =             75
    Spherical Points       =            302
    Total Points           =          45055
    Total Blocks           =            424
    Max Points             =            255
    Max Functions          =             95


  -Total Gradient:
     Atom            X                  Y                   Z
    ------   -----------------  -----------------  -----------------
       1        0.000000000000    -0.000000000000    -0.069301559763
       2        0.000000000000     0.000000000000     0.068116928514


*** tstop() called on bp1-compute00157.data.bp.acrc.priv at Fri Oct 29 07:50:17 2021
Module time:
	user time   =      31.41 seconds =       0.52 minutes
	system time =       2.74 seconds =       0.05 minutes
	total time  =          5 seconds =       0.08 minutes
Total time:
	user time   =    1020.19 seconds =      17.00 minutes
	system time =      57.50 seconds =       0.96 minutes
	total time  =        108 seconds =       1.80 minutes


  ==> Adding ECP gradient terms (computed numerically) <==

  -ECP Gradient:
     Atom            X                  Y                   Z
    ------   -----------------  -----------------  -----------------
       1       -0.000000000000     0.000000000000     0.068648108981
       2       -0.000000000000     0.000000000000    -0.068648108990


  -Total Gradient:
     Atom            X                  Y                   Z
    ------   -----------------  -----------------  -----------------
       1       -0.000000000000     0.000000000000    -0.000653450782
       2       -0.000000000000     0.000000000000    -0.000531180476


			-----------------------------------------
			 OPTKING 2.0: for geometry optimizations 
			  - R.A. King,  Bethel University        
			-----------------------------------------
	At level 1: Red. Int., RFO, no backsteps, dynamic trust

	Previous internal coordinate definitions found.
	---Fragment 1 Geometry and Gradient---
	 AG          0.0000000000        0.0000000000        0.5756397743
	 F           0.0000000000        0.0000000000       -3.2391576426
	            -0.0000000000        0.0000000000       -0.0006534508
	            -0.0000000000        0.0000000000       -0.0005311805

	---Fragment 1 Intrafragment Coordinates---
	 - Coordinate -           - BOHR/RAD -       - ANG/DEG -
	 R(1,2)           =         3.814797	       2.018704

	Current energy   :      -247.4151437797

	Energy change for the previous step:
		Projected    :         0.0000064442
		Actual       :         0.0000003314

	Performing BFGS update.
	Previous computed or guess Hessian on step 1.
	Steps to be used in Hessian update: 3 2
	Taking RFO optimization step.
	Going to follow RFO solution 1.
	Using RFO vector 1.
	Norm of target step-size    0.00044
	Projected energy change by RFO approximation:         0.0000000708

	Back-transformation to cartesian coordinates...
	Successfully converged to displaced geometry.

	--- Internal Coordinate Step in ANG or DEG, aJ/ANG or AJ/DEG ---
	 ---------------------------------------------------------------------------
	   Coordinate                Previous        Force       Change         New 
	   ----------                --------       ------       ------       ------
	    1 R(1,2)          =      2.018704     0.000504     0.000234     2.018938
	 ---------------------------------------------------------------------------
	Successfully symmetrized geometry.

  ==> Convergence Check <==

  Measures of convergence in internal coordinates in au.
  Criteria marked as inactive (o), active & met (*), and active & unmet ( ).
  ---------------------------------------------------------------------------------------------
   Step     Total Energy     Delta E     MAX Force     RMS Force      MAX Disp      RMS Disp   
  ---------------------------------------------------------------------------------------------
    Convergence Criteria    1.00e-06 *    3.00e-04 *             o    1.20e-03 *             o
  ---------------------------------------------------------------------------------------------
      4    -247.41514378    3.31e-07 *    6.11e-05 *    6.11e-05 o    4.42e-04 *    4.42e-04 o  ~
  ---------------------------------------------------------------------------------------------


  **** Optimization is complete! (in 4 steps) ****

  ==> Optimization Summary <==

  Measures of convergence in internal coordinates in au.
  --------------------------------------------------------------------------------------------------------------- ~
   Step         Total Energy             Delta E       MAX Force       RMS Force        MAX Disp        RMS Disp  ~
  --------------------------------------------------------------------------------------------------------------- ~
      1    -247.414746610214   -247.414746610214      0.01142474      0.01142474      0.03053423      0.03053423  ~
      2    -247.415004206314     -0.000257596100      0.00676564      0.00676564      0.04425300      0.04425300  ~
      3    -247.415144111107     -0.000139904793      0.00061542      0.00061542      0.00425785      0.00425785  ~
      4    -247.415143779666      0.000000331441      0.00006114      0.00006114      0.00044235      0.00044235  ~
  --------------------------------------------------------------------------------------------------------------- ~

	Writing optimization data to binary file.
	Final energy is   -247.4151437796659
	Final (previous) structure:
	Cartesian Geometry (in Angstrom)
	   AG     0.0000000000   0.0000000000   0.3046154489
	    F     0.0000000000   0.0000000000  -1.7140883995
	Saving final (previous) structure.
			--------------------------
			 OPTKING Finished Execution 
			--------------------------

    Final optimized geometry and variables:
    Molecular point group: c2v
    Full point group: C_inf_v

    Geometry (in Angstrom), charge = 0, multiplicity = 1:

    AG           0.000000000000     0.000000000000     0.304615450123
    F            0.000000000000     0.000000000000    -1.714088406231

	Removing binary optimization data file.
	Cleaning optimization helper files.
gradient() will perform analytic gradient computation.

*** tstart() called on bp1-compute00157.data.bp.acrc.priv
*** at Fri Oct 29 07:50:42 2021

   => Loading Basis Set <=

    Name: DEF2-TZVPPD
    Role: ORBITAL
    Keyword: BASIS
    atoms 1 entry AG         line  2174 (ECP: line  3646) file /work/zw18965/.conda/envs/p4env/share/psi4/basis/def2-tzvppd.gbs 
    atoms 2 entry F          line   257 file /work/zw18965/.conda/envs/p4env/share/psi4/basis/def2-tzvppd.gbs 

    !!!  WARNING: ECP capability is in beta. Please check occupations closely.  !!!


         ---------------------------------------------------------
                                   SCF
               by Justin Turney, Rob Parrish, Andy Simmonett
                          and Daniel G. A. Smith
                              RKS Reference
                       24 Threads, 137329 MiB Core
         ---------------------------------------------------------

  ==> Geometry <==

    Molecular point group: c2v
    Full point group: C_inf_v

    Geometry (in Angstrom), charge = 0, multiplicity = 1:

       Center              X                  Y                   Z               Mass       
    ------------   -----------------  -----------------  -----------------  -----------------
         AG           0.000000000000     0.000000000000     0.304615450123   106.905091600000
         F            0.000000000000     0.000000000000    -1.714088406231    18.998403162730

  Running in c2v symmetry.

  Rotational constants: A = ************  B =      0.25643  C =      0.25643 [cm^-1]
  Rotational constants: A = ************  B =   7687.66181  C =   7687.66181 [MHz]
  Nuclear repulsion =   44.825447150047452

  Charge       = 0
  Multiplicity = 1
  Electrons    = 28
  Nalpha       = 14
  Nbeta        = 14

  ==> Algorithm <==

  SCF Algorithm Type is DF.
  DIIS enabled.
  MOM disabled.
  Fractional occupation disabled.
  Guess Type is SAD.
  Energy threshold   = 1.00e-08
  Density threshold  = 1.00e-08
  Integral threshold = 0.00e+00

  ==> Primary Basis <==

  Basis Set: DEF2-TZVPPD
    Blend: DEF2-TZVPPD
    Number of shells: 30
    Number of basis function: 96
    Number of Cartesian functions: 117
    Spherical Harmonics?: true
    Max angular momentum: 4

  Core potential: DEF2-TZVPPD
    Number of shells: 4
    Number of ECP primitives: 14
    Number of ECP core electrons: 28
    Max angular momentum: 3

  ==> DFT Potential <==

   => Composite Functional: GAM <= 

   GAM GGA Minessota Exchange-Correlation Functional

    H.S. Yu, et al., Phys. Chem. Chem. Phys. 17, 12146, 2015


    Deriv               =              1
    GGA                 =           TRUE
    Meta                =          FALSE

    Exchange Hybrid     =          FALSE
    MP2 Hybrid          =          FALSE

   => Exchange Functionals <=

    1.0000     XC_GGA_X_GAM

   => Correlation Functionals <=

    1.0000     XC_GGA_C_GAM

   => Molecular Quadrature <=

    Radial Scheme          =       TREUTLER
    Pruning Scheme         =           FLAT
    Nuclear Scheme         =       TREUTLER

    BS radius alpha        =              1
    Pruning alpha          =              1
    Radial Points          =             75
    Spherical Points       =            302
    Total Points           =          45055
    Total Blocks           =            424
    Max Points             =            255
    Max Functions          =             95

   => Loading Basis Set <=

    Name: (DEF2-TZVPPD AUX)
    Role: JKFIT
    Keyword: DF_BASIS_SCF
    atoms 1 entry AG         line  4369 file /work/zw18965/.conda/envs/p4env/share/psi4/basis/def2-tzvpp-jkfit.gbs 
    atoms 2 entry F          line   383 file /work/zw18965/.conda/envs/p4env/share/psi4/basis/def2-tzvpp-jkfit.gbs 

  ==> Pre-Iterations <==

   -------------------------------------------------------
    Irrep   Nso     Nmo     Nalpha   Nbeta   Ndocc  Nsocc
   -------------------------------------------------------
     A1        41      41       0       0       0       0
     A2        11      11       0       0       0       0
[...]
  MOM disabled.
  Fractional occupation disabled.
  Guess Type is SAD.
  Energy threshold   = 1.00e-08
  Density threshold  = 1.00e-08
  Integral threshold = 0.00e+00

  ==> Primary Basis <==

  Basis Set: DEF2-TZVPPD
    Blend: DEF2-TZVPPD
    Number of shells: 30
    Number of basis function: 96
    Number of Cartesian functions: 117
    Spherical Harmonics?: true
    Max angular momentum: 4

  Core potential: DEF2-TZVPPD
    Number of shells: 4
    Number of ECP primitives: 14
    Number of ECP core electrons: 28
    Max angular momentum: 3

  ==> DFT Potential <==

   => Composite Functional: GAM <= 

   GAM GGA Minessota Exchange-Correlation Functional

    H.S. Yu, et al., Phys. Chem. Chem. Phys. 17, 12146, 2015


    Deriv               =              1
    GGA                 =           TRUE
    Meta                =          FALSE

    Exchange Hybrid     =          FALSE
    MP2 Hybrid          =          FALSE

   => Exchange Functionals <=

    1.0000     XC_GGA_X_GAM

   => Correlation Functionals <=

    1.0000     XC_GGA_C_GAM

   => Molecular Quadrature <=

    Radial Scheme          =       TREUTLER
    Pruning Scheme         =           FLAT
    Nuclear Scheme         =       TREUTLER

    BS radius alpha        =              1
    Pruning alpha          =              1
    Radial Points          =             75
    Spherical Points       =            302
    Total Points           =          45055
    Total Blocks           =            424
    Max Points             =            255
    Max Functions          =             95

   => Loading Basis Set <=

    Name: (DEF2-TZVPPD AUX)
    Role: JKFIT
    Keyword: DF_BASIS_SCF
    atoms 1 entry AG         line  4369 file /work/zw18965/.conda/envs/p4env/share/psi4/basis/def2-tzvpp-jkfit.gbs 
    atoms 2 entry F          line   383 file /work/zw18965/.conda/envs/p4env/share/psi4/basis/def2-tzvpp-jkfit.gbs 

  ==> Pre-Iterations <==

   -------------------------------------------------------
    Irrep   Nso     Nmo     Nalpha   Nbeta   Ndocc  Nsocc
   -------------------------------------------------------
     A1        41      41       0       0       0       0
     A2        11      11       0       0       0       0
     B1        22      22       0       0       0       0
     B2        22      22       0       0       0       0
   -------------------------------------------------------
    Total      96      96      14      14      14       0
   -------------------------------------------------------

  ==> Integral Setup <==

  DFHelper Memory: AOs need 0.028 GiB; user supplied 100.478 GiB. Using in-core AOs.

  ==> MemDFJK: Density-Fitted J/K Matrices <==

    J tasked:                   Yes
    K tasked:                    No
    wK tasked:                   No
    OpenMP threads:              24
    Memory [MiB]:            102889
    Algorithm:                 Core
    Schwarz Cutoff:           1E-12
    Mask sparsity (%):       0.5208
    Fitting Condition:        1E-10

   => Auxiliary Basis Set <=

  Basis Set: (DEF2-TZVPPD AUX)
    Blend: DEF2-TZVPP-JKFIT
    Number of shells: 74
    Number of basis function: 332
    Number of Cartesian functions: 477
    Spherical Harmonics?: true
    Max angular momentum: 6

  Cached 100.0% of DFT collocation blocks in 0.105 [GiB].

  Minimum eigenvalue in the overlap matrix is 3.7418511442E-03.
  Using Symmetric Orthogonalization.

  SCF Guess: Superposition of Atomic Densities via on-the-fly atomic UHF.

  ==> Iterations <==

                           Total Energy        Delta E     RMS |[F,P]|

   @DF-RKS iter SAD:  -246.91259045079829   -2.46913e+02   0.00000e+00 
   @DF-RKS iter   1:  -247.19923663122580   -2.86646e-01   1.45968e-02 DIIS
   @DF-RKS iter   2:  -236.91711007343943    1.02821e+01   5.64439e-02 DIIS
   @DF-RKS iter   3:  -247.35707072631720   -1.04400e+01   6.60248e-03 DIIS
   @DF-RKS iter   4:  -247.38885214706372   -3.17814e-02   5.66107e-03 DIIS
   @DF-RKS iter   5:  -247.41349821826324   -2.46461e-02   1.38907e-03 DIIS
   @DF-RKS iter   6:  -247.41434794613210   -8.49728e-04   8.41400e-04 DIIS
   @DF-RKS iter   7:  -247.41512402062997   -7.76074e-04   1.41296e-04 DIIS
   @DF-RKS iter   8:  -247.41513542127095   -1.14006e-05   8.20396e-05 DIIS
   @DF-RKS iter   9:  -247.41514296921454   -7.54794e-06   1.58087e-05 DIIS
   @DF-RKS iter  10:  -247.41514323892397   -2.69709e-07   9.27908e-07 DIIS
   @DF-RKS iter  11:  -247.41514323954522   -6.21242e-10   1.10400e-07 DIIS
   @DF-RKS iter  12:  -247.41514323955644   -1.12266e-11   2.22031e-08 DIIS
   @DF-RKS iter  13:  -247.41514323955693   -4.83169e-13   2.26407e-09 DIIS
  Energy and wave function converged.


  ==> Post-Iterations <==

    Orbital Energies [Eh]
    ---------------------

    Doubly Occupied:                                                      

       1A1   -24.107758     2A1    -3.611666     3A1    -2.243054  
       1B2    -2.241893     1B1    -2.241893     4A1    -0.947291  
       5A1    -0.344473     2B2    -0.318063     2B1    -0.318063  
       6A1    -0.307088     1A2    -0.307083     7A1    -0.245586  
       3B2    -0.237828     3B1    -0.237828  

    Virtual:                                                              

       8A1    -0.148001     4B2    -0.016645     4B1    -0.016645  
       9A1     0.027995    10A1     0.084700    11A1     0.144799  
       5B1     0.151726     5B2     0.151726     6B2     0.181817  
       6B1     0.181817    12A1     0.223400    13A1     0.318568  
      14A1     0.353663     2A2     0.353664     7B2     0.441229  
       7B1     0.441229    15A1     0.494812     3A2     0.536491  
      16A1     0.536491    17A1     0.660427     8B1     0.661166  
       8B2     0.661166     9B2     0.767244     9B1     0.767244  
      18A1     1.037858    19A1     1.071951    10B1     1.499062  
      10B2     1.499062    20A1     1.512019     4A2     1.512023  
      11B2     1.525847    11B1     1.525847    21A1     1.591168  
      12B2     1.607231    12B1     1.607231    22A1     1.717454  
      23A1     1.894566    24A1     1.950216     5A2     1.950220  
      13B2     1.969152    13B1     1.969152    25A1     2.003715  
      26A1     2.259815     6A2     2.259835    14B2     2.318851  
      14B1     2.318851    27A1     2.638702    15B1     3.326071  
      15B2     3.326071    28A1     3.619212    29A1     4.053925  
      16B2     4.642806    16B1     4.642806    30A1     4.652525  
       7A2     4.652593    17B2     4.713537    17B1     4.713537  
      31A1     4.889275    18B1     5.386905    18B2     5.386905  
      32A1     5.386978     8A2     5.386993    33A1     5.387686  
       9A2     5.387773    19B2     5.389802    19B1     5.389802  
      34A1     5.432568    35A1     6.820862    10A2     6.820898  
      20B1     6.834092    20B2     6.834092    21B1     6.838473  
      21B2     6.838473    36A1     6.938951    37A1     8.350868  
      11A2     8.350887    22B1     8.378347    22B2     8.378347  
      38A1     8.542985    39A1    33.334379    40A1    56.898866  
      41A1   110.759867  

    Final Occupation by Irrep:
             A1    A2    B1    B2 
    DOCC [     7,    1,    3,    3 ]

  @DF-RKS Final Energy:  -247.41514323955693

   => Energetics <=

    Nuclear Repulsion Energy =             44.8108239439234666
    One-Electron Energy =                -491.5693681275485574
    Two-Electron Energy =                 224.6183264909315085
    DFT Exchange-Correlation Energy =     -25.2749255468633578
    Empirical Dispersion Energy =           0.0000000000000000
    VV10 Nonlocal Energy =                  0.0000000000000000
    Total Energy =                       -247.4151432395569259

Computation Completed


Properties will be evaluated at   0.000000,   0.000000,   0.000000 [a0]

Properties computed using the SCF density matrix

  Nuclear Dipole Moment: [e a0]
     X:     0.0000      Y:     0.0000      Z:   -18.2212

  Electronic Dipole Moment: [e a0]
     X:     0.0000      Y:     0.0000      Z:    20.3787

  Dipole Moment: [e a0]
     X:     0.0000      Y:     0.0000      Z:     2.1575     Total:     2.1575

  Dipole Moment: [D]
     X:     0.0000      Y:     0.0000      Z:     5.4837     Total:     5.4837


*** tstop() called on bp1-compute00157.data.bp.acrc.priv at Fri Oct 29 07:52:29 2021
Module time:
	user time   =      50.06 seconds =       0.83 minutes
	system time =       1.80 seconds =       0.03 minutes
	total time  =          3 seconds =       0.05 minutes
Total time:
	user time   =    2312.41 seconds =      38.54 minutes
	system time =     117.83 seconds =       1.96 minutes
	total time  =        240 seconds =       4.00 minutes

*** tstart() called on bp1-compute00157.data.bp.acrc.priv
*** at Fri Oct 29 07:52:29 2021


         ------------------------------------------------------------
                                   SCF GRAD                          
                          Rob Parrish, Justin Turney,                
                       Andy Simmonett, and Alex Sokolov              
         ------------------------------------------------------------

  ==> Geometry <==

    Molecular point group: c2v
    Full point group: C_inf_v

    Geometry (in Angstrom), charge = 0, multiplicity = 1:

       Center              X                  Y                   Z               Mass       
    ------------   -----------------  -----------------  -----------------  -----------------
         AG           0.000000000000     0.000000000000     0.304714855894   106.905091600000
         F            0.000000000000     0.000000000000    -1.714647768141    18.998403162730

  Nuclear repulsion =   44.810823943923467

  ==> Basis Set <==

  Basis Set: DEF2-TZVPPD
    Blend: DEF2-TZVPPD
    Number of shells: 30
    Number of basis function: 96
    Number of Cartesian functions: 117
    Spherical Harmonics?: true
    Max angular momentum: 4

  Core potential: DEF2-TZVPPD
    Number of shells: 4
    Number of ECP primitives: 14
    Number of ECP core electrons: 28
    Max angular momentum: 3

  ==> DFJKGrad: Density-Fitted SCF Gradients <==

    Gradient:                    1
    J tasked:                  Yes
    K tasked:                   No
    wK tasked:                  No
    OpenMP threads:             24
    Integrals threads:          24
    Memory [MiB]:           102996
    Schwarz Cutoff:          0E+00
    Fitting Condition:       1E-10

   => Auxiliary Basis Set <=

  Basis Set: (DEF2-TZVPPD AUX)
    Blend: DEF2-TZVPP-JKFIT
    Number of shells: 74
    Number of basis function: 332
    Number of Cartesian functions: 477
    Spherical Harmonics?: true
    Max angular momentum: 6

  ==> DFT Potential <==

   => Composite Functional: GAM <= 

   GAM GGA Minessota Exchange-Correlation Functional

    H.S. Yu, et al., Phys. Chem. Chem. Phys. 17, 12146, 2015


    Deriv               =              1
    GGA                 =           TRUE
    Meta                =          FALSE

    Exchange Hybrid     =          FALSE
    MP2 Hybrid          =          FALSE

   => Exchange Functionals <=

    1.0000     XC_GGA_X_GAM

   => Correlation Functionals <=

    1.0000     XC_GGA_C_GAM

   => Molecular Quadrature <=

    Radial Scheme          =       TREUTLER
    Pruning Scheme         =           FLAT
    Nuclear Scheme         =       TREUTLER

    BS radius alpha        =              1
    Pruning alpha          =              1
    Radial Points          =             75
    Spherical Points       =            302
    Total Points           =          45055
    Total Blocks           =            424
    Max Points             =            255
    Max Functions          =             95


  -Total Gradient:
     Atom            X                  Y                   Z
    ------   -----------------  -----------------  -----------------
       1        0.000000000000    -0.000000000000    -0.069006963323
       2        0.000000000000    -0.000000000000     0.067813267139


*** tstop() called on bp1-compute00157.data.bp.acrc.priv at Fri Oct 29 07:52:34 2021
Module time:
	user time   =      31.50 seconds =       0.53 minutes
	system time =       2.81 seconds =       0.05 minutes
	total time  =          5 seconds =       0.08 minutes
Total time:
	user time   =    2343.93 seconds =      39.07 minutes
	system time =     120.64 seconds =       2.01 minutes
	total time  =        245 seconds =       4.08 minutes


  ==> Adding ECP gradient terms (computed numerically) <==

  -ECP Gradient:
     Atom            X                  Y                   Z
    ------   -----------------  -----------------  -----------------
       1        0.000000000000    -0.000000000000     0.068509787126
       2        0.000000000000    -0.000000000000    -0.068509787126


  -Total Gradient:
     Atom            X                  Y                   Z
    ------   -----------------  -----------------  -----------------
       1        0.000000000000    -0.000000000000    -0.000497176196
       2        0.000000000000    -0.000000000000    -0.000696519987


         ----------------------------------------------------------
                                   FINDIF
                     R. A. King and Jonathon Misiewicz
         ---------------------------------------------------------

  Computing second-derivative from gradients using projected, 
  symmetry-adapted, cartesian coordinates.

  3 gradients passed in, including the reference geometry.
  Generating complete list of displacements from unique ones.


-------------------------------------------------------------


  ==> Harmonic Vibrational Analysis <==

  non-mass-weighted Hessian:       Symmetric? True   Hermitian? True   Lin Dep Dim?  5 (0)
  projection of translations (True) and rotations (True) removed 5 degrees of freedom (5)
  total projector:                 Symmetric? True   Hermitian? True   Lin Dep Dim?  5 (5)
  mass-weighted Hessian:           Symmetric? True   Hermitian? True   Lin Dep Dim?  5 (0)
  pre-proj  low-frequency mode:    0.0000  [cm^-1]
  pre-proj  low-frequency mode:    0.0000  [cm^-1]
  pre-proj  low-frequency mode:    0.0000  [cm^-1]
  pre-proj  low-frequency mode:    0.0000  [cm^-1]
  pre-proj  low-frequency mode:    0.0000  [cm^-1]
  pre-proj  all modes:['0.0000' '0.0000' '0.0000' '0.0000' '0.0000' '464.9144']
  projected mass-weighted Hessian: Symmetric? True   Hermitian? True   Lin Dep Dim?  5 (5)
  post-proj low-frequency mode:    0.0000  [cm^-1] (TR)
  post-proj low-frequency mode:    0.0000  [cm^-1] (TR)
  post-proj low-frequency mode:    0.0000  [cm^-1] (TR)
  post-proj low-frequency mode:    0.0000  [cm^-1] (TR)
  post-proj low-frequency mode:    0.0000  [cm^-1] (TR)
  post-proj  all modes:['0.0000' '0.0000' '0.0000' '0.0000' '0.0000' '464.9144']

  Vibration                       6           
  Freq [cm^-1]                 464.9144       
  Irrep                           A1          
  Reduced mass [u]             21.6897        
  Force const [mDyne/A]         2.7622        
  Turning point v=0 [a0]        0.1093        
  RMS dev v=0 [a0 u^1/2]        0.3598        
  Char temp [K]                668.9083       
  ----------------------------------------------------------------------------------
      1   AG               0.00  0.00 -0.17   
      2   F                0.00  0.00  0.98   

  ==> Thermochemistry Components <==

  Entropy, S
    Electronic S            0.000 [cal/(mol K)]        0.000 [J/(mol K)]       0.00000000 [mEh/K] (multiplicity = 1)
    Translational S        40.405 [cal/(mol K)]      169.053 [J/(mol K)]       0.06438884 [mEh/K] (mol. weight = 125.9035 [u], P = 101325.00 [Pa])
    Rotational S           15.291 [cal/(mol K)]       63.977 [J/(mol K)]       0.02436763 [mEh/K] (symmetry no. = 1)
    Vibrational S           0.752 [cal/(mol K)]        3.146 [J/(mol K)]       0.00119828 [mEh/K]
  Total S                  56.447 [cal/(mol K)]      236.176 [J/(mol K)]       0.08995475 [mEh/K]
  Correction S              0.000 [cal/(mol K)]        0.000 [J/(mol K)]       0.00000000 [mEh/K]

  Constant volume heat capacity, Cv
    Electronic Cv           0.000 [cal/(mol K)]        0.000 [J/(mol K)]       0.00000000 [mEh/K]
    Translational Cv        2.981 [cal/(mol K)]       12.472 [J/(mol K)]       0.00475022 [mEh/K]
    Rotational Cv           1.987 [cal/(mol K)]        8.314 [J/(mol K)]       0.00316681 [mEh/K]
    Vibrational Cv          1.328 [cal/(mol K)]        5.556 [J/(mol K)]       0.00211611 [mEh/K]
  Total Cv                  6.296 [cal/(mol K)]       26.342 [J/(mol K)]       0.01003314 [mEh/K]
  Correction Cv             0.000 [cal/(mol K)]        0.000 [J/(mol K)]       0.00000000 [mEh/K]

  Constant pressure heat capacity, Cp
    Electronic Cp           0.000 [cal/(mol K)]        0.000 [J/(mol K)]       0.00000000 [mEh/K]
    Translational Cp        4.968 [cal/(mol K)]       20.786 [J/(mol K)]       0.00791703 [mEh/K]
    Rotational Cp           1.987 [cal/(mol K)]        8.314 [J/(mol K)]       0.00316681 [mEh/K]
    Vibrational Cp          1.328 [cal/(mol K)]        5.556 [J/(mol K)]       0.00211611 [mEh/K]
  Total Cp                  8.283 [cal/(mol K)]       34.656 [J/(mol K)]       0.01319995 [mEh/K]
  Correction Cp             0.000 [cal/(mol K)]        0.000 [J/(mol K)]       0.00000000 [mEh/K]

  ==> Thermochemistry Energy Analysis <==

  Raw electronic energy, E0
  Total E0, Electronic energy at well bottom at 0 [K]                 -247.41514378 [Eh]

  Zero-point energy, ZPE_vib = Sum_i nu_i / 2
    Electronic ZPE          0.000 [kcal/mol]        0.000 [kJ/mol]       0.00000000 [Eh]
    Translational ZPE       0.000 [kcal/mol]        0.000 [kJ/mol]       0.00000000 [Eh]
    Rotational ZPE          0.000 [kcal/mol]        0.000 [kJ/mol]       0.00000000 [Eh]
    Vibrational ZPE         0.665 [kcal/mol]        2.781 [kJ/mol]       0.00105915 [Eh]         232.457 [cm^-1]
  Correction ZPE            0.665 [kcal/mol]        2.781 [kJ/mol]       0.00105915 [Eh]         232.457 [cm^-1]
  Total ZPE, Electronic energy at 0 [K]                               -247.41408463 [Eh]

  Thermal Energy, E (includes ZPE)
    Electronic E            0.000 [kcal/mol]        0.000 [kJ/mol]       0.00000000 [Eh]
    Translational E         0.889 [kcal/mol]        3.718 [kJ/mol]       0.00141628 [Eh]
    Rotational E            0.592 [kcal/mol]        2.479 [kJ/mol]       0.00094418 [Eh]
    Vibrational E           0.822 [kcal/mol]        3.441 [kJ/mol]       0.00131054 [Eh]
  Correction E              2.304 [kcal/mol]        9.638 [kJ/mol]       0.00367100 [Eh]
  Total E, Electronic energy at  298.15 [K]                           -247.41147278 [Eh]

  Enthalpy, H_trans = E_trans + k_B * T
    Electronic H            0.000 [kcal/mol]        0.000 [kJ/mol]       0.00000000 [Eh]
    Translational H         1.481 [kcal/mol]        6.197 [kJ/mol]       0.00236046 [Eh]
    Rotational H            0.592 [kcal/mol]        2.479 [kJ/mol]       0.00094418 [Eh]
    Vibrational H           0.822 [kcal/mol]        3.441 [kJ/mol]       0.00131054 [Eh]
  Correction H              2.896 [kcal/mol]       12.117 [kJ/mol]       0.00461518 [Eh]
  Total H, Enthalpy at  298.15 [K]                                    -247.41052860 [Eh]

  Gibbs free energy, G = H - T * S
    Electronic G            0.000 [kcal/mol]        0.000 [kJ/mol]       0.00000000 [Eh]
    Translational G       -10.565 [kcal/mol]      -44.206 [kJ/mol]      -0.01683707 [Eh]
    Rotational G           -3.967 [kcal/mol]      -16.596 [kJ/mol]      -0.00632102 [Eh]
    Vibrational G           0.598 [kcal/mol]        2.503 [kJ/mol]       0.00095327 [Eh]
  Correction G            -13.934 [kcal/mol]      -58.299 [kJ/mol]      -0.02220483 [Eh]
  Total G, Free enthalpy at  298.15 [K]                               -247.43734861 [Eh]

    Psi4 stopped on: Friday, 29 October 2021 07:52AM
    Psi4 wall time for execution: 0:04:29.98

*** Psi4 exiting successfully. Buy a developer a beer!
