Too many bad steps.
Optimizer: Optimization complete!
 6 displacements needed.
 1 2 3 4 5 6
Warning: thermodynamics relations excluded imaginary frequencies: ['33.6036i' '33.5944i']
Warning: used thermodynamics relations inappropriate for low-frequency modes: ['87.2782' '145.0096']
At level 1: Red. Int., RFO, no backsteps, dynamic trust
At level 1: Red. Int., RFO, no backsteps, dynamic trust
At level 1: Red. Int., RFO, no backsteps, dynamic trust
At level 1: Red. Int., RFO, no backsteps, dynamic trust
At level 1: Red. Int., RFO, no backsteps, dynamic trust
At level 2: Red. Int., RFO, backsteps, smaller trust.
At level 2: Red. Int., RFO, backsteps, smaller trust.
At level 2: Red. Int., RFO, backsteps, smaller trust.
(doi: 10.1021/acs.jctc.7b00174)


                         Additional Contributions by
    P. Kraus, H. Kruse, M. H. Lechner, M. C. Schieber, R. A. Shaw,
    A. Alenaizan, R. Galvelis, Z. L. Glick, S. Lehtola, and J. P. Misiewicz

    -----------------------------------------------------------------------


    Psi4 started on: Friday, 29 October 2021 07:59AM

    Process ID: 54896
    Host:       bp1-compute00066.data.bp.acrc.priv
    PSIDATADIR: /work/zw18965/.conda/envs/p4env/share/psi4
    Memory:     500.0 MiB
    Threads:    24
    
  ==> Input File <==

--------------------------------------------------------------------------
memory 144 GB

molecule {
1 1
Ag       0.000000    0.000000    0.000000 
Ag       0.000000    0.000000    2.629319 
Ag       0.000000    0.000000   -2.629319 
 }

set dynamic_level 1
set basis Def2-TZVPPD

optimize("GAM")
frequencies("GAM")
--------------------------------------------------------------------------

  Memory set to 134.110 GiB by Python driver.
gradient() will perform analytic gradient computation.

*** tstart() called on bp1-compute00066.data.bp.acrc.priv
*** at Fri Oct 29 07:59:30 2021

   => Loading Basis Set <=

    Name: DEF2-TZVPPD
    Role: ORBITAL
    Keyword: BASIS
    atoms 1-3 entry AG         line  2174 (ECP: line  3646) file /work/zw18965/.conda/envs/p4env/share/psi4/basis/def2-tzvppd.gbs 

    !!!  WARNING: ECP capability is in beta. Please check occupations closely.  !!!


         ---------------------------------------------------------
                                   SCF
               by Justin Turney, Rob Parrish, Andy Simmonett
                          and Daniel G. A. Smith
                              RKS Reference
                       24 Threads, 137329 MiB Core
         ---------------------------------------------------------

  ==> Geometry <==

    Molecular point group: d2h
    Full point group: D_inf_h

    Geometry (in Angstrom), charge = 1, multiplicity = 1:

       Center              X                  Y                   Z               Mass       
    ------------   -----------------  -----------------  -----------------  -----------------
         AG           0.000000000000     0.000000000000     0.000000000000   106.905091600000
         AG           0.000000000000     0.000000000000     2.629319000000   106.905091600000
         AG           0.000000000000     0.000000000000    -2.629319000000   106.905091600000

  Running in d2h symmetry.

  Rotational constants: A = ************  B =      0.01140  C =      0.01140 [cm^-1]
  Rotational constants: A = ************  B =    341.90248  C =    341.90248 [MHz]
  Nuclear repulsion =  181.637310889121807

  Charge       = 1
  Multiplicity = 1
  Electrons    = 56
  Nalpha       = 28
  Nbeta        = 28

  ==> Algorithm <==

  SCF Algorithm Type is DF.
  DIIS enabled.
  MOM disabled.
  Fractional occupation disabled.
  Guess Type is SAD.
  Energy threshold   = 1.00e-08
  Density threshold  = 1.00e-08
  Integral threshold = 0.00e+00

  ==> Primary Basis <==

  Basis Set: DEF2-TZVPPD
    Blend: DEF2-TZVPPD
    Number of shells: 48
    Number of basis function: 168
    Number of Cartesian functions: 213
    Spherical Harmonics?: true
    Max angular momentum: 4

  Core potential: DEF2-TZVPPD
    Number of shells: 12
    Number of ECP primitives: 42
    Number of ECP core electrons: 84
    Max angular momentum: 3

  ==> DFT Potential <==

   => Composite Functional: GAM <= 

   GAM GGA Minessota Exchange-Correlation Functional

    H.S. Yu, et al., Phys. Chem. Chem. Phys. 17, 12146, 2015


    Deriv               =              1
    GGA                 =           TRUE
    Meta                =          FALSE

    Exchange Hybrid     =          FALSE
    MP2 Hybrid          =          FALSE

   => Exchange Functionals <=

    1.0000     XC_GGA_X_GAM

   => Correlation Functionals <=

    1.0000     XC_GGA_C_GAM

   => Molecular Quadrature <=

    Radial Scheme          =       TREUTLER
    Pruning Scheme         =           FLAT
    Nuclear Scheme         =       TREUTLER

    BS radius alpha        =              1
    Pruning alpha          =              1
    Radial Points          =             75
    Spherical Points       =            302
    Total Points           =          67368
    Total Blocks           =            623
    Max Points             =            248
    Max Functions          =            149

   => Loading Basis Set <=

    Name: (DEF2-TZVPPD AUX)
    Role: JKFIT
    Keyword: DF_BASIS_SCF
    atoms 1-3 entry AG         line  4369 file /work/zw18965/.conda/envs/p4env/share/psi4/basis/def2-tzvpp-jkfit.gbs 

  ==> Pre-Iterations <==

   -------------------------------------------------------
    Irrep   Nso     Nmo     Nalpha   Nbeta   Ndocc  Nsocc
   -------------------------------------------------------
     Ag        38      38       0       0       0       0
     B1g       12      12       0       0       0       0
     B2g       18      18       0       0       0       0
     B3g       18      18       0       0       0       0
     Au         9       9       0       0       0       0
     B1u       31      31       0       0       0       0
     B2u       21      21       0       0       0       0
     B3u       21      21       0       0       0       0
   -------------------------------------------------------
    Total     168     168      28      28      28       0
   -------------------------------------------------------

  ==> Integral Setup <==

  DFHelper Memory: AOs need 0.158 GiB; user supplied 100.369 GiB. Using in-core AOs.

  ==> MemDFJK: Density-Fitted J/K Matrices <==

    J tasked:                   Yes
    K tasked:                    No
    wK tasked:                   No
    OpenMP threads:              24
    Memory [MiB]:            102777
    Algorithm:                 Core
    Schwarz Cutoff:           1E-12
    Mask sparsity (%):      12.9535
    Fitting Condition:        1E-10

   => Auxiliary Basis Set <=

  Basis Set: (DEF2-TZVPPD AUX)
    Blend: DEF2-TZVPP-JKFIT
    Number of shells: 147
    Number of basis function: 765
    Number of Cartesian functions: 1152
    Spherical Harmonics?: true
    Max angular momentum: 6

  Cached 100.0% of DFT collocation blocks in 0.214 [GiB].

  Minimum eigenvalue in the overlap matrix is 1.3220231581E-03.
  Using Symmetric Orthogonalization.

  SCF Guess: Superposition of Atomic Densities via on-the-fly atomic UHF.

  ==> Iterations <==

                           Total Energy        Delta E     RMS |[F,P]|

   @DF-RKS iter SAD:  -442.15729918032650   -4.42157e+02   0.00000e+00 
    Occupation by irrep:
             Ag   B1g   B2g   B3g    Au   B1u   B2u   B3u 
    DOCC [     7,    2,    3,    3,    1,    6,    3,    3 ]

   @DF-RKS iter   1:  -442.51245637523152   -3.55157e-01   4.55035e-03 DIIS
    Occupation by irrep:
             Ag   B1g   B2g   B3g    Au   B1u   B2u   B3u 
    DOCC [     8,    2,    3,    3,    1,    5,    3,    3 ]

   @DF-RKS iter   2:  -441.65877597790342    8.53680e-01   1.96103e-02 DIIS
   @DF-RKS iter   3:  -442.52052155681179   -8.61746e-01   4.01902e-03 DIIS
   @DF-RKS iter   4:  -442.54219057262458   -2.16690e-02   6.29765e-04 DIIS
   @DF-RKS iter   5:  -442.54259489269270   -4.04320e-04   4.48016e-04 DIIS
   @DF-RKS iter   6:  -442.54278325011762   -1.88357e-04   1.21384e-04 DIIS
   @DF-RKS iter   7:  -442.54282411901852   -4.08689e-05   8.75408e-06 DIIS
   @DF-RKS iter   8:  -442.54282434861045   -2.29592e-07   1.16409e-06 DIIS
   @DF-RKS iter   9:  -442.54282435274479   -4.13434e-09   7.43743e-08 DIIS
   @DF-RKS iter  10:  -442.54282435275309   -8.29914e-12   1.42138e-08 DIIS
   @DF-RKS iter  11:  -442.54282435275366   -5.68434e-13   1.75630e-09 DIIS
  Energy and wave function converged.


  ==> Post-Iterations <==

    Orbital Energies [Eh]
    ---------------------

    Doubly Occupied:                                                      

       1Ag    -3.777378     1B1u   -3.777376     2Ag    -3.749970  
       2B1u   -2.410528     3Ag    -2.410204     1B3u   -2.407182  
       1B2u   -2.407182     1B2g   -2.407180     1B3g   -2.407180  
       3B1u   -2.384873     2B3u   -2.377694     2B2u   -2.377694  
       4Ag    -0.510394     2B2g   -0.486860     2B3g   -0.486860  
       4B1u   -0.479768     3B3u   -0.476059     3B2u   -0.476059  
       1B1g   -0.472037     5Ag    -0.472036     1Au    -0.471568  
       5B1u   -0.471567     2B1g   -0.439834     6Ag    -0.439831  
       3B2g   -0.438013     3B3g   -0.438013     7Ag    -0.433855  
       8Ag    -0.370811  

    Virtual:                                                              

       6B1u   -0.337855     9Ag    -0.249738     4B3u   -0.200700  
       4B2u   -0.200700     7B1u   -0.170838     4B2g   -0.156884  
       4B3g   -0.156884     5B3u   -0.088463     5B2u   -0.088463  
      10Ag    -0.060264    11Ag    -0.042935     8B1u   -0.025447  
       9B1u    0.005810     6B3u    0.027282     6B2u    0.027282  
      12Ag     0.036759     5B2g    0.060535     5B3g    0.060535  
       7B3u    0.100444     7B2u    0.100444    10B1u    0.113053  
      13Ag     0.122368    14Ag     0.166574     3B1g    0.166576  
       6B2g    0.199165     6B3g    0.199165    11B1u    0.210942  
       2Au     0.210943    12B1u    0.241885    15Ag     0.290414  
       4B1g    0.290415     8B3u    0.306435     8B2u    0.306435  
      16Ag     0.411555    13B1u    0.480520     7B2g    0.481150  
       7B3g    0.481150    17Ag     0.558579    14B1u    1.215709  
       9B3u    1.288702     9B2u    1.288702     3Au     1.326984  
      15B1u    1.326996     5B1g    1.334032    18Ag     1.334042  
      10B2u    1.334106    10B3u    1.334106     8B3g    1.334127  
       8B2g    1.334127     9B2g    1.353722     9B3g    1.353722  
      19Ag     1.354969    11B3u    1.367623    11B2u    1.367623  
       4Au     1.367641    16B1u    1.367657    12B2u    1.369288  
      12B3u    1.369288    13B3u    1.390781    13B2u    1.390781  
      10B2g    1.428443    10B3g    1.428443    17B1u    1.429147  
      20Ag     1.437631    18B1u    1.490609    14B3u    1.499773  
      14B2u    1.499773    21Ag     1.618511    19B1u    1.693390  
      22Ag     1.776123     6B1g    1.776152    20B1u    1.785297  
       5Au     1.785325    11B2g    1.807989    11B3g    1.807989  
      23Ag     1.838179     7B1g    1.838206    15B3u    1.854066  
      15B2u    1.854066    24Ag     1.903256    21B1u    1.906046  
      12B2g    1.952241    12B3g    1.952241    22B1u    2.070372  
      25Ag     2.073614    26Ag     2.408878    23B1u    4.422977  
      16B3u    4.439523    16B2u    4.439523     6Au     4.473043  
      24B1u    4.473409    17B2u    4.478598    17B3u    4.478598  
      13B3g    4.478616    13B2g    4.478616     8B1g    4.480043  
      27Ag     4.480391    18B2u    4.508425    18B3u    4.508425  
       7Au     4.510274    25B1u    4.510783    14B2g    4.519271  
      14B3g    4.519271    19B3u    4.579265    19B2u    4.579265  
      28Ag     4.640041    26B1u    4.786505    20B3u    5.218769  
      20B2u    5.218769     8Au     5.219190    27B1u    5.219309  
       9B1g    5.219509    29Ag     5.219628    15B2g    5.220034  
      15B3g    5.220034    21B2u    5.220575    21B3u    5.220575  
      16B3g    5.220585    16B2g    5.220585    28B1u    5.221579  
      30Ag     5.221579    10B1g    5.222282     9Au     5.222282  
      29B1u    5.222697    31Ag     5.222774    11B1g    5.249430  
      32Ag     5.249607    17B2g    5.250051    17B3g    5.250051  
      18B3g    5.252858    18B2g    5.252858    33Ag     5.256634  
      12B1g    5.257624    34Ag     5.264459    35Ag    33.108310  
      30B1u   33.247873    36Ag    33.644821    37Ag   110.576606  
      31B1u  110.618067    38Ag   110.758561  

    Final Occupation by Irrep:
             Ag   B1g   B2g   B3g    Au   B1u   B2u   B3u 
    DOCC [     8,    2,    3,    3,    1,    5,    3,    3 ]

  @DF-RKS Final Energy:  -442.54282435275366

   => Energetics <=

    Nuclear Repulsion Energy =            181.6373108891218067
    One-Electron Energy =               -1137.4250843813638312
    Two-Electron Energy =                 557.5610124571252300
    DFT Exchange-Correlation Energy =     -44.3160633176369458
    Empirical Dispersion Energy =           0.0000000000000000
    VV10 Nonlocal Energy =                  0.0000000000000000
    Total Energy =                       -442.5428243527536551

Computation Completed


Properties will be evaluated at   0.000000,   0.000000,   0.000000 [a0]

Properties computed using the SCF density matrix

  Nuclear Dipole Moment: [e a0]
     X:     0.0000      Y:     0.0000      Z:    -0.0000

  Electronic Dipole Moment: [e a0]
     X:     0.0000      Y:     0.0000      Z:     0.0000

  Dipole Moment: [e a0]
     X:     0.0000      Y:     0.0000      Z:    -0.0000     Total:     0.0000

  Dipole Moment: [D]
     X:     0.0000      Y:     0.0000      Z:    -0.0000     Total:     0.0000


*** tstop() called on bp1-compute00066.data.bp.acrc.priv at Fri Oct 29 07:59:38 2021
Module time:
	user time   =      68.55 seconds =       1.14 minutes
	system time =       3.30 seconds =       0.06 minutes
	total time  =          8 seconds =       0.13 minutes
Total time:
	user time   =      68.55 seconds =       1.14 minutes
	system time =       3.30 seconds =       0.06 minutes
	total time  =          8 seconds =       0.13 minutes

*** tstart() called on bp1-compute00066.data.bp.acrc.priv
*** at Fri Oct 29 07:59:38 2021


         ------------------------------------------------------------
                                   SCF GRAD                          
                          Rob Parrish, Justin Turney,                
                       Andy Simmonett, and Alex Sokolov              
         ------------------------------------------------------------

  ==> Geometry <==

    Molecular point group: d2h
    Full point group: D_inf_h

    Geometry (in Angstrom), charge = 1, multiplicity = 1:

       Center              X                  Y                   Z               Mass       
    ------------   -----------------  -----------------  -----------------  -----------------
         AG           0.000000000000     0.000000000000     0.000000000000   106.905091600000
         AG           0.000000000000     0.000000000000     2.629319000000   106.905091600000
         AG           0.000000000000     0.000000000000    -2.629319000000   106.905091600000

  Nuclear repulsion =  181.637310889121807

  ==> Basis Set <==

  Basis Set: DEF2-TZVPPD
    Blend: DEF2-TZVPPD
    Number of shells: 48
    Number of basis function: 168
    Number of Cartesian functions: 213
    Spherical Harmonics?: true
    Max angular momentum: 4

  Core potential: DEF2-TZVPPD
    Number of shells: 12
    Number of ECP primitives: 42
    Number of ECP core electrons: 84
    Max angular momentum: 3

  ==> DFJKGrad: Density-Fitted SCF Gradients <==

    Gradient:                    1
    J tasked:                  Yes
    K tasked:                   No
    wK tasked:                  No
    OpenMP threads:             24
    Integrals threads:          24
    Memory [MiB]:           102996
    Schwarz Cutoff:          0E+00
    Fitting Condition:       1E-10

   => Auxiliary Basis Set <=

  Basis Set: (DEF2-TZVPPD AUX)
    Blend: DEF2-TZVPP-JKFIT
    Number of shells: 147
    Number of basis function: 765
    Number of Cartesian functions: 1152
    Spherical Harmonics?: true
    Max angular momentum: 6

  ==> DFT Potential <==

   => Composite Functional: GAM <= 

   GAM GGA Minessota Exchange-Correlation Functional

    H.S. Yu, et al., Phys. Chem. Chem. Phys. 17, 12146, 2015


    Deriv               =              1
    GGA                 =           TRUE
    Meta                =          FALSE

    Exchange Hybrid     =          FALSE
    MP2 Hybrid          =          FALSE

   => Exchange Functionals <=

    1.0000     XC_GGA_X_GAM

   => Correlation Functionals <=

    1.0000     XC_GGA_C_GAM

   => Molecular Quadrature <=

    Radial Scheme          =       TREUTLER
    Pruning Scheme         =           FLAT
    Nuclear Scheme         =       TREUTLER

    BS radius alpha        =              1
    Pruning alpha          =              1
    Radial Points          =             75
    Spherical Points       =            302
    Total Points           =          67368
    Total Blocks           =            623
    Max Points             =            248
    Max Functions          =            149


  -Total Gradient:
     Atom            X                  Y                   Z
    ------   -----------------  -----------------  -----------------
       1       -0.000000000000     0.000000000000     0.000000000000
       2        0.000000000000     0.000000000000    -0.085943963037
       3       -0.000000000000     0.000000000000     0.085943963037


*** tstop() called on bp1-compute00066.data.bp.acrc.priv at Fri Oct 29 07:59:43 2021
Module time:
	user time   =      41.97 seconds =       0.70 minutes
	system time =       8.94 seconds =       0.15 minutes
	total time  =          5 seconds =       0.08 minutes
Total time:
	user time   =     110.54 seconds =       1.84 minutes
	system time =      12.24 seconds =       0.20 minutes
	total time  =         13 seconds =       0.22 minutes


  ==> Adding ECP gradient terms (computed numerically) <==

  -ECP Gradient:
     Atom            X                  Y                   Z
    ------   -----------------  -----------------  -----------------
       1        0.000000000000    -0.000000000000     0.000000000000
       2        0.000000000000     0.000000000000     0.076544987332
       3        0.000000000000    -0.000000000000    -0.076544987332


  -Total Gradient:
     Atom            X                  Y                   Z
    ------   -----------------  -----------------  -----------------
       1        0.000000000000    -0.000000000000     0.000000000000
       2        0.000000000000     0.000000000000    -0.009398975705
       3        0.000000000000    -0.000000000000     0.009398975705


			-----------------------------------------
			 OPTKING 2.0: for geometry optimizations 
			  - R.A. King,  Bethel University        
			-----------------------------------------
	At level 1: Red. Int., RFO, no backsteps, dynamic trust

	Internal coordinates to be generated automatically.
	Detected frag 1 with atoms:  1 2 3
	---Fragment 1 Bond Connectivity---
	 1 : 2 3
	 2 : 1
	 3 : 1

	---Fragment 1 Geometry and Gradient---
	 AG          0.0000000000        0.0000000000        0.0000000000
	 AG          0.0000000000        0.0000000000        4.9686928065
	 AG          0.0000000000        0.0000000000       -4.9686928065
	             0.0000000000       -0.0000000000        0.0000000000
	             0.0000000000        0.0000000000       -0.0093989757
	             0.0000000000       -0.0000000000        0.0093989757

	Previous optimization step data not found.  Starting new optimization.

	---Fragment 1 Intrafragment Coordinates---
	 - Coordinate -           - BOHR/RAD -       - ANG/DEG -
	 R(1,2)           =         4.968693	       2.629319
	 R(1,3)           =         4.968693	       2.629319
	 L(2,1,3)         =         3.141593	     180.000000
	 l(2,1,3)         =         3.141593	     180.000000

	Current energy   :      -442.5428243528

	Generating empirical Hessian (Schlegel '84) for each fragment.
	Taking RFO optimization step.
	Going to follow RFO solution 1.
	Using RFO vector 1.
	Norm of target step-size    0.18096
	Projected energy change by RFO approximation:         0.0135255902

	Back-transformation to cartesian coordinates...
	Successfully converged to displaced geometry.

	--- Internal Coordinate Step in ANG or DEG, aJ/ANG or AJ/DEG ---
	 ---------------------------------------------------------------------------
	   Coordinate                Previous        Force       Change         New 
	   ----------                --------       ------       ------       ------
	    1 R(1,2)          =      2.629319     0.077436     0.067714     2.697033
	    2 R(1,3)          =      2.629319     0.077436     0.067714     2.697033
	    3 L(2,1,3)        =    180.000000     0.000000     0.000000   180.000000
	    4 l(2,1,3)        =    180.000000    -0.000000     0.000000   180.000000
	 ---------------------------------------------------------------------------
	Successfully symmetrized geometry.

  ==> Convergence Check <==

  Measures of convergence in internal coordinates in au.
  Criteria marked as inactive (o), active & met (*), and active & unmet ( ).
  --------------------------------------------------------------------------------------------- ~
   Step     Total Energy     Delta E     MAX Force     RMS Force      MAX Disp      RMS Disp    ~
  --------------------------------------------------------------------------------------------- ~
    Convergence Criteria    1.00e-06 *    3.00e-04 *             o    1.20e-03 *             o  ~
  --------------------------------------------------------------------------------------------- ~
      1    -442.54282435   -4.43e+02      9.40e-03      6.65e-03 o    1.28e-01      9.05e-02 o  ~
  ---------------------------------------------------------------------------------------------

	Writing optimization data to binary file.
	Structure for next step:
	Cartesian Geometry (in Angstrom)
	   AG     0.0000000000   0.0000000000   0.0000000000
	   AG     0.0000000000  -0.0000000000   2.6970328363
	   AG     0.0000000000  -0.0000000000  -2.6970328363
			--------------------------
			 OPTKING Finished Execution 
			--------------------------

    Structure for next step:
    Molecular point group: d2h
    Full point group: D_inf_h

    Geometry (in Angstrom), charge = 1, multiplicity = 1:

    AG           0.000000000000     0.000000000000     0.000000000000
    AG          -0.000000000000     0.000000000000     2.697032846884
    AG          -0.000000000000     0.000000000000    -2.697032846884

gradient() will perform analytic gradient computation.

*** tstart() called on bp1-compute00066.data.bp.acrc.priv
*** at Fri Oct 29 08:02:01 2021

   => Loading Basis Set <=

    Name: DEF2-TZVPPD
    Role: ORBITAL
    Keyword: BASIS
    atoms 1-3 entry AG         line  2174 (ECP: line  3646) file /work/zw18965/.conda/envs/p4env/share/psi4/basis/def2-tzvppd.gbs 

    !!!  WARNING: ECP capability is in beta. Please check occupations closely.  !!!


         ---------------------------------------------------------
                                   SCF
               by Justin Turney, Rob Parrish, Andy Simmonett
                          and Daniel G. A. Smith
                              RKS Reference
                       24 Threads, 137329 MiB Core
         ---------------------------------------------------------

  ==> Geometry <==

    Molecular point group: d2h
    Full point group: D_inf_h

    Geometry (in Angstrom), charge = 1, multiplicity = 1:

       Center              X                  Y                   Z               Mass       
    ------------   -----------------  -----------------  -----------------  -----------------
         AG           0.000000000000    -0.000000000000     0.000000000000   106.905091600000
         AG           0.000000000000     0.000000000000     2.697032846884   106.905091600000
         AG           0.000000000000     0.000000000000    -2.697032846884   106.905091600000

  Running in d2h symmetry.

  Rotational constants: A = ************  B =      0.01084  C =      0.01084 [cm^-1]
  Rotational constants: A = ************  B =    324.94985  C =    324.94985 [MHz]
  Nuclear repulsion =  177.076980423664679

  Charge       = 1
  Multiplicity = 1
  Electrons    = 56
  Nalpha       = 28
  Nbeta        = 28

  ==> Algorithm <==

  SCF Algorithm Type is DF.
  DIIS enabled.
  MOM disabled.
  Fractional occupation disabled.
  Guess Type is READ.
  Energy threshold   = 1.00e-08
  Density threshold  = 1.00e-08
  Integral threshold = 0.00e+00

  ==> Primary Basis <==

  Basis Set: DEF2-TZVPPD
    Blend: DEF2-TZVPPD
    Number of shells: 48
    Number of basis function: 168
    Number of Cartesian functions: 213
    Spherical Harmonics?: true
    Max angular momentum: 4

  Core potential: DEF2-TZVPPD
    Number of shells: 12
    Number of ECP primitives: 42
    Number of ECP core electrons: 84
    Max angular momentum: 3

  ==> DFT Potential <==

   => Composite Functional: GAM <= 

   GAM GGA Minessota Exchange-Correlation Functional

    H.S. Yu, et al., Phys. Chem. Chem. Phys. 17, 12146, 2015


    Deriv               =              1
    GGA                 =           TRUE
    Meta                =          FALSE

    Exchange Hybrid     =          FALSE
    MP2 Hybrid          =          FALSE

   => Exchange Functionals <=

    1.0000     XC_GGA_X_GAM

   => Correlation Functionals <=

    1.0000     XC_GGA_C_GAM

   => Molecular Quadrature <=

    Radial Scheme          =       TREUTLER
    Pruning Scheme         =           FLAT
    Nuclear Scheme         =       TREUTLER

    BS radius alpha        =              1
    Pruning alpha          =              1
    Radial Points          =             75
    Spherical Points       =            302
    Total Points           =          67368
    Total Blocks           =            621
    Max Points             =            246
    Max Functions          =            148

   => Loading Basis Set <=

    Name: (DEF2-TZVPPD AUX)
    Role: JKFIT
    Keyword: DF_BASIS_SCF
    atoms 1-3 entry AG         line  4369 file /work/zw18965/.conda/envs/p4env/share/psi4/basis/def2-tzvpp-jkfit.gbs 

   => Loading Basis Set <=

    Name: DEF2-TZVPPD
    Role: ORBITAL
    Keyword: BASIS
    atoms 1-3 entry AG         line  2174 (ECP: line  3646) file /work/zw18965/.conda/envs/p4env/share/psi4/basis/def2-tzvppd.gbs 

    !!!  WARNING: ECP capability is in beta. Please check occupations closely.  !!!

  Reading orbitals from file 180, no projection.

  ==> Pre-Iterations <==

   -------------------------------------------------------
    Irrep   Nso     Nmo     Nalpha   Nbeta   Ndocc  Nsocc
   -------------------------------------------------------
     Ag        38      38       0       0       0       0
     B1g       12      12       0       0       0       0
     B2g       18      18       0       0       0       0
     B3g       18      18       0       0       0       0
     Au         9       9       0       0       0       0
     B1u       31      31       0       0       0       0
     B2u       21      21       0       0       0       0
     B3u       21      21       0       0       0       0
   -------------------------------------------------------
    Total     168     168      28      28      28       0
   -------------------------------------------------------

  ==> Integral Setup <==

  DFHelper Memory: AOs need 0.157 GiB; user supplied 100.371 GiB. Using in-core AOs.

  ==> MemDFJK: Density-Fitted J/K Matrices <==

    J tasked:                   Yes
    K tasked:                    No
    wK tasked:                   No
    OpenMP threads:              24
    Memory [MiB]:            102779
    Algorithm:                 Core
    Schwarz Cutoff:           1E-12
    Mask sparsity (%):      13.4495
    Fitting Condition:        1E-10

   => Auxiliary Basis Set <=

  Basis Set: (DEF2-TZVPPD AUX)
    Blend: DEF2-TZVPP-JKFIT
    Number of shells: 147
    Number of basis function: 765
    Number of Cartesian functions: 1152
    Spherical Harmonics?: true
    Max angular momentum: 6

  Cached 100.0% of DFT collocation blocks in 0.212 [GiB].

  Minimum eigenvalue in the overlap matrix is 1.5647208594E-03.
  Using Symmetric Orthogonalization.

  SCF Guess: Orbitals guess was supplied from a previous computation.

  ==> Iterations <==

                           Total Energy        Delta E     RMS |[F,P]|

   @DF-RKS iter   0:  -442.53082463227094   -4.42531e+02   1.63568e-03 
   @DF-RKS iter   1:  -442.54436321810465   -1.35386e-02   9.59737e-05 DIIS
   @DF-RKS iter   2:  -442.54432625613174    3.69620e-05   1.89034e-04 DIIS
   @DF-RKS iter   3:  -442.54439137457115   -6.51184e-05   3.45455e-05 DIIS
   @DF-RKS iter   4:  -442.54439267013061   -1.29556e-06   1.35188e-05 DIIS
   @DF-RKS iter   5:  -442.54439297741123   -3.07281e-07   3.08143e-06 DIIS
   @DF-RKS iter   6:  -442.54439299081002   -1.33988e-08   1.28054e-06 DIIS
   @DF-RKS iter   7:  -442.54439299291306   -2.10304e-09   1.82766e-07 DIIS
   @DF-RKS iter   8:  -442.54439299303664   -1.23578e-10   3.03820e-08 DIIS
   @DF-RKS iter   9:  -442.54439299303976   -3.12639e-12   1.86325e-09 DIIS
  Energy and wave function converged.


  ==> Post-Iterations <==

    Orbital Energies [Eh]
    ---------------------

    Doubly Occupied:                                                      

       1Ag    -3.775168     1B1u   -3.775167     2Ag    -3.746916  
       2B1u   -2.407862     3Ag    -2.407684     1B3u   -2.405104  
       1B2u   -2.405104     1B2g   -2.405103     1B3g   -2.405103  
       3B1u   -2.381350     2B3u   -2.374916     2B2u   -2.374916  
       4Ag    -0.502675     2B2g   -0.481914     2B3g   -0.481914  
       4B1u   -0.476869     3B3u   -0.473454     3B2u   -0.473454  
       1B1g   -0.469968     5Ag    -0.469965     1Au    -0.469632  
       5B1u   -0.469629     2B1g   -0.437457     6Ag    -0.437452  
       3B2g   -0.437083     3B3g   -0.437083     7Ag    -0.433880  
       8Ag    -0.367763  

    Virtual:                                                              

       6B1u   -0.336537     9Ag    -0.251628     4B2u   -0.198406  
       4B3u   -0.198406     7B1u   -0.172516     4B3g   -0.156817  
       4B2g   -0.156817     5B2u   -0.090981     5B3u   -0.090981  
      10Ag    -0.061406    11Ag    -0.045935     8B1u   -0.024956  
       9B1u    0.003511     6B3u    0.029421     6B2u    0.029421  
      12Ag     0.034801     5B2g    0.060790     5B3g    0.060790  
       7B2u    0.099353     7B3u    0.099353    10B1u    0.111742  
      13Ag     0.115790    14Ag     0.169956     3B1g    0.169958  
       6B3g    0.193023     6B2g    0.193023    11B1u    0.212618  
       2Au     0.212619    12B1u    0.228784    15Ag     0.287452  
       4B1g    0.287454     8B2u    0.300002     8B3u    0.300002  
      16Ag     0.403913    13B1u    0.470832     7B2g    0.473677  
       7B3g    0.473677    17Ag     0.562308    14B1u    1.255744  
       9B3u    1.300474     9B2u    1.300474     3Au     1.331252  
      15B1u    1.331273     5B1g    1.335503    18Ag     1.335522  
      10B3u    1.335931    10B2u    1.335931     8B2g    1.335941  
       8B3g    1.335941     9B2g    1.352418     9B3g    1.352418  
      19Ag     1.360137    11B3u    1.361830    11B2u    1.361830  
       4Au     1.368149    16B1u    1.368178    12B3u    1.371519  
      12B2u    1.371519    13B3u    1.391380    13B2u    1.391380  
      17B1u    1.416012    10B2g    1.422531    10B3g    1.422531  
      20Ag     1.436388    18B1u    1.477539    14B3u    1.493953  
      14B2u    1.493953    21Ag     1.609033    19B1u    1.677286  
      22Ag     1.777654     6B1g    1.777684    20B1u    1.786885  
       5Au     1.786913    11B3g    1.816636    11B2g    1.816636  
      23Ag     1.838588     7B1g    1.838616    15B2u    1.853087  
      15B3u    1.853087    21B1u    1.894213    24Ag     1.917074  
      12B3g    1.947003    12B2g    1.947003    25Ag     2.032640  
      22B1u    2.058173    26Ag     2.384800    23B1u    4.433057  
      16B3u    4.454247    16B2u    4.454247     6Au     4.477055  
      24B1u    4.477410    17B3u    4.480581    17B2u    4.480581  
      13B2g    4.480588    13B3g    4.480588     8B1g    4.481581  
      27Ag     4.481927     7Au     4.510942    18B2u    4.511023  
      18B3u    4.511023    25B1u    4.511449    14B2g    4.515913  
      14B3g    4.515913    19B2u    4.564191    19B3u    4.564191  
      28Ag     4.626564    26B1u    4.747473    20B3u    5.220977  
      20B2u    5.220977     8Au     5.221478    27B1u    5.221666  
       9B1g    5.221741    29Ag     5.221927    15B2g    5.222392  
      15B3g    5.222392    21B2u    5.222671    21B3u    5.222671  
      16B3g    5.222716    16B2g    5.222716    28B1u    5.223185  
      30Ag     5.223475    29B1u    5.223514    10B1g    5.224119  
       9Au     5.224119    31Ag     5.224731    11B1g    5.252558  
      17B2g    5.252777    17B3g    5.252777    32Ag     5.252848  
      18B2g    5.255629    18B3g    5.255629    33Ag     5.258946  
      12B1g    5.259853    34Ag     5.262778    35Ag    33.096305  
      30B1u   33.222503    36Ag    33.603793    37Ag   110.574883  
      31B1u  110.611553    38Ag   110.746964  

    Final Occupation by Irrep:
             Ag   B1g   B2g   B3g    Au   B1u   B2u   B3u 
    DOCC [     8,    2,    3,    3,    1,    5,    3,    3 ]

  @DF-RKS Final Energy:  -442.54439299303976

   => Energetics <=

    Nuclear Repulsion Energy =            177.0769804236646792
    One-Electron Energy =               -1128.4594603491841553
    Two-Electron Energy =                 553.1460145268761153
    DFT Exchange-Correlation Energy =     -44.3079275943964888
    Empirical Dispersion Energy =           0.0000000000000000
    VV10 Nonlocal Energy =                  0.0000000000000000
    Total Energy =                       -442.5443929930397644

Computation Completed


Properties will be evaluated at   0.000000,   0.000000,   0.000000 [a0]

Properties computed using the SCF density matrix

  Nuclear Dipole Moment: [e a0]
     X:     0.0000      Y:     0.0000      Z:     0.0000

  Electronic Dipole Moment: [e a0]
     X:     0.0000      Y:     0.0000      Z:     0.0000

  Dipole Moment: [e a0]
     X:     0.0000      Y:     0.0000      Z:     0.0000     Total:     0.0000

  Dipole Moment: [D]
     X:     0.0000      Y:     0.0000      Z:     0.0000     Total:     0.0000


*** tstop() called on bp1-compute00066.data.bp.acrc.priv at Fri Oct 29 08:02:07 2021
Module time:
	user time   =      55.95 seconds =       0.93 minutes
	system time =       1.58 seconds =       0.03 minutes
	total time  =          6 seconds =       0.10 minutes
Total time:
	user time   =    1066.13 seconds =      17.77 minutes
	system time =      31.74 seconds =       0.53 minutes
	total time  =        157 seconds =       2.62 minutes

*** tstart() called on bp1-compute00066.data.bp.acrc.priv
*** at Fri Oct 29 08:02:07 2021


         ------------------------------------------------------------
                                   SCF GRAD                          
                          Rob Parrish, Justin Turney,                
                       Andy Simmonett, and Alex Sokolov              
         ------------------------------------------------------------

  ==> Geometry <==

    Molecular point group: d2h
    Full point group: D_inf_h

    Geometry (in Angstrom), charge = 1, multiplicity = 1:

       Center              X                  Y                   Z               Mass       
    ------------   -----------------  -----------------  -----------------  -----------------
         AG          -0.000000000000     0.000000000000     0.000000000000   106.905091600000
         AG           0.000000000000     0.000000000000     2.697032846884   106.905091600000
         AG           0.000000000000     0.000000000000    -2.697032846884   106.905091600000

  Nuclear repulsion =  177.076980423664679

  ==> Basis Set <==

  Basis Set: DEF2-TZVPPD
    Blend: DEF2-TZVPPD
    Number of shells: 48
    Number of basis function: 168
    Number of Cartesian functions: 213
    Spherical Harmonics?: true
    Max angular momentum: 4

  Core potential: DEF2-TZVPPD
    Number of shells: 12
    Number of ECP primitives: 42
    Number of ECP core electrons: 84
    Max angular momentum: 3

  ==> DFJKGrad: Density-Fitted SCF Gradients <==

    Gradient:                    1
    J tasked:                  Yes
    K tasked:                   No
    wK tasked:                  No
    OpenMP threads:             24
    Integrals threads:          24
    Memory [MiB]:           102996
    Schwarz Cutoff:          0E+00
    Fitting Condition:       1E-10

   => Auxiliary Basis Set <=

  Basis Set: (DEF2-TZVPPD AUX)
    Blend: DEF2-TZVPP-JKFIT
    Number of shells: 147
    Number of basis function: 765
    Number of Cartesian functions: 1152
    Spherical Harmonics?: true
    Max angular momentum: 6

  ==> DFT Potential <==

   => Composite Functional: GAM <= 

   GAM GGA Minessota Exchange-Correlation Functional

    H.S. Yu, et al., Phys. Chem. Chem. Phys. 17, 12146, 2015


    Deriv               =              1
    GGA                 =           TRUE
    Meta                =          FALSE

    Exchange Hybrid     =          FALSE
    MP2 Hybrid          =          FALSE

   => Exchange Functionals <=

    1.0000     XC_GGA_X_GAM

   => Correlation Functionals <=

    1.0000     XC_GGA_C_GAM

   => Molecular Quadrature <=

    Radial Scheme          =       TREUTLER
    Pruning Scheme         =           FLAT
    Nuclear Scheme         =       TREUTLER

    BS radius alpha        =              1
    Pruning alpha          =              1
    Radial Points          =             75
    Spherical Points       =            302
    Total Points           =          67368
    Total Blocks           =            621
    Max Points             =            246
    Max Functions          =            148


  -Total Gradient:
     Atom            X                  Y                   Z
    ------   -----------------  -----------------  -----------------
       1        0.000000000000     0.000000000000     0.000000000000
       2        0.000000000000     0.000000000000    -0.071774725816
       3        0.000000000000    -0.000000000000     0.071774725816


*** tstop() called on bp1-compute00066.data.bp.acrc.priv at Fri Oct 29 08:02:12 2021
Module time:
	user time   =      42.42 seconds =       0.71 minutes
	system time =       2.39 seconds =       0.04 minutes
	total time  =          5 seconds =       0.08 minutes
Total time:
	user time   =    1108.57 seconds =      18.48 minutes
	system time =      34.13 seconds =       0.57 minutes
	total time  =        162 seconds =       2.70 minutes


  ==> Adding ECP gradient terms (computed numerically) <==

  -ECP Gradient:
     Atom            X                  Y                   Z
    ------   -----------------  -----------------  -----------------
       1        0.000000000000     0.000000000000     0.000000000000
       2        0.000000000000    -0.000000000000     0.068138858005
       3        0.000000000000     0.000000000000    -0.068138858005


  -Total Gradient:
     Atom            X                  Y                   Z
    ------   -----------------  -----------------  -----------------
       1        0.000000000000     0.000000000000     0.000000000000
       2        0.000000000000    -0.000000000000    -0.003635867812
       3        0.000000000000     0.000000000000     0.003635867812


			-----------------------------------------
			 OPTKING 2.0: for geometry optimizations 
			  - R.A. King,  Bethel University        
			-----------------------------------------
	At level 1: Red. Int., RFO, no backsteps, dynamic trust

	Previous internal coordinate definitions found.
	---Fragment 1 Geometry and Gradient---
	 AG         -0.0000000000        0.0000000000        0.0000000000
	 AG          0.0000000000        0.0000000000        5.0966534320
	 AG          0.0000000000        0.0000000000       -5.0966534320
	             0.0000000000        0.0000000000        0.0000000000
	             0.0000000000       -0.0000000000       -0.0036358678
	             0.0000000000        0.0000000000        0.0036358678

	---Fragment 1 Intrafragment Coordinates---
	 - Coordinate -           - BOHR/RAD -       - ANG/DEG -
	 R(1,2)           =         5.096653	       2.697033
	 R(1,3)           =         5.096653	       2.697033
	 L(2,1,3)         =         3.141593	     180.000000
	 l(2,1,3)         =         3.141593	     180.000000

	Current energy   :      -442.5443929930

	Energy change for the previous step:
		Projected    :         0.0135255902
		Actual       :        -0.0015686403

	Performing BFGS update.
	Previous computed or guess Hessian on step 1.
	Steps to be used in Hessian update: 1
	Taking RFO optimization step.
	Going to follow RFO solution 1.
	Using RFO vector 1.
	Norm of target step-size    0.11272
	Projected energy change by RFO approximation:        -0.0050078951

	Back-transformation to cartesian coordinates...
	Successfully converged to displaced geometry.

	--- Internal Coordinate Step in ANG or DEG, aJ/ANG or AJ/DEG ---
	 ---------------------------------------------------------------------------
	   Coordinate                Previous        Force       Change         New 
	   ----------                --------       ------       ------       ------
	    1 R(1,2)          =      2.697033     0.029955     0.042177     2.739210
	    2 R(1,3)          =      2.697033     0.029955     0.042177     2.739210
	    3 L(2,1,3)        =    180.000000    -0.000000     0.000000   180.000000
	    4 l(2,1,3)        =    180.000000    -0.000000     0.000000   180.000000
	 ---------------------------------------------------------------------------
	Successfully symmetrized geometry.

  ==> Convergence Check <==

  Measures of convergence in internal coordinates in au.
  Criteria marked as inactive (o), active & met (*), and active & unmet ( ).
  ---------------------------------------------------------------------------------------------
   Step     Total Energy     Delta E     MAX Force     RMS Force      MAX Disp      RMS Disp   
  ---------------------------------------------------------------------------------------------
    Convergence Criteria    1.00e-06 *    3.00e-04 *             o    1.20e-03 *             o
  ---------------------------------------------------------------------------------------------
      2    -442.54439299   -1.57e-03      3.64e-03      2.57e-03 o    7.97e-02      5.64e-02 o  ~
  ---------------------------------------------------------------------------------------------

	Writing optimization data to binary file.
	Structure for next step:
	Cartesian Geometry (in Angstrom)
	   AG     0.0000000000  -0.0000000000   0.0000000000
	   AG     0.0000000000   0.0000000000   2.7392098377
	   AG     0.0000000000   0.0000000000  -2.7392098377
			--------------------------
			 OPTKING Finished Execution 
			--------------------------

    Structure for next step:
    Molecular point group: d2h
    Full point group: D_inf_h

    Geometry (in Angstrom), charge = 1, multiplicity = 1:

    AG          -0.000000000000     0.000000000000     0.000000000000
    AG           0.000000000000     0.000000000000     2.739209848502
    AG           0.000000000000     0.000000000000    -2.739209848502

gradient() will perform analytic gradient computation.

*** tstart() called on bp1-compute00066.data.bp.acrc.priv
*** at Fri Oct 29 08:04:31 2021

   => Loading Basis Set <=

    Name: DEF2-TZVPPD
    Role: ORBITAL
    Keyword: BASIS
    atoms 1-3 entry AG         line  2174 (ECP: line  3646) file /work/zw18965/.conda/envs/p4env/share/psi4/basis/def2-tzvppd.gbs 

    !!!  WARNING: ECP capability is in beta. Please check occupations closely.  !!!


         ---------------------------------------------------------
                                   SCF
               by Justin Turney, Rob Parrish, Andy Simmonett
                          and Daniel G. A. Smith
                              RKS Reference
                       24 Threads, 137329 MiB Core
         ---------------------------------------------------------

  ==> Geometry <==

    Molecular point group: d2h
    Full point group: D_inf_h

    Geometry (in Angstrom), charge = 1, multiplicity = 1:

       Center              X                  Y                   Z               Mass       
    ------------   -----------------  -----------------  -----------------  -----------------
         AG           0.000000000000     0.000000000000     0.000000000000   106.905091600000
         AG           0.000000000000    -0.000000000000     2.739209848502   106.905091600000
         AG           0.000000000000    -0.000000000000    -2.739209848502   106.905091600000

  Running in d2h symmetry.

  Rotational constants: A = ************  B =      0.01051  C =      0.01051 [cm^-1]
  Rotational constants: A = ************  B =    315.02006  C =    315.02006 [MHz]
  Nuclear repulsion =  174.350436455540034

  Charge       = 1
  Multiplicity = 1
  Electrons    = 56
  Nalpha       = 28
  Nbeta        = 28

  ==> Algorithm <==

  SCF Algorithm Type is DF.
  DIIS enabled.
  MOM disabled.
  Fractional occupation disabled.
  Guess Type is READ.
  Energy threshold   = 1.00e-08
  Density threshold  = 1.00e-08
  Integral threshold = 0.00e+00

  ==> Primary Basis <==

  Basis Set: DEF2-TZVPPD
    Blend: DEF2-TZVPPD
    Number of shells: 48
    Number of basis function: 168
    Number of Cartesian functions: 213
    Spherical Harmonics?: true
    Max angular momentum: 4

  Core potential: DEF2-TZVPPD
    Number of shells: 12
    Number of ECP primitives: 42
    Number of ECP core electrons: 84
    Max angular momentum: 3

  ==> DFT Potential <==

   => Composite Functional: GAM <= 

   GAM GGA Minessota Exchange-Correlation Functional

    H.S. Yu, et al., Phys. Chem. Chem. Phys. 17, 12146, 2015


    Deriv               =              1
    GGA                 =           TRUE
    Meta                =          FALSE

    Exchange Hybrid     =          FALSE
    MP2 Hybrid          =          FALSE

   => Exchange Functionals <=

    1.0000     XC_GGA_X_GAM

   => Correlation Functionals <=

    1.0000     XC_GGA_C_GAM

   => Molecular Quadrature <=

    Radial Scheme          =       TREUTLER
    Pruning Scheme         =           FLAT
    Nuclear Scheme         =       TREUTLER

    BS radius alpha        =              1
    Pruning alpha          =              1
    Radial Points          =             75
    Spherical Points       =            302
    Total Points           =          67368
    Total Blocks           =            620
    Max Points             =            248
    Max Functions          =            144

   => Loading Basis Set <=

    Name: (DEF2-TZVPPD AUX)
    Role: JKFIT
    Keyword: DF_BASIS_SCF
    atoms 1-3 entry AG         line  4369 file /work/zw18965/.conda/envs/p4env/share/psi4/basis/def2-tzvpp-jkfit.gbs 

   => Loading Basis Set <=

    Name: DEF2-TZVPPD
    Role: ORBITAL
    Keyword: BASIS
    atoms 1-3 entry AG         line  2174 (ECP: line  3646) file /work/zw18965/.conda/envs/p4env/share/psi4/basis/def2-tzvppd.gbs 

    !!!  WARNING: ECP capability is in beta. Please check occupations closely.  !!!

  Reading orbitals from file 180, no projection.

  ==> Pre-Iterations <==

   -------------------------------------------------------
    Irrep   Nso     Nmo     Nalpha   Nbeta   Ndocc  Nsocc
   -------------------------------------------------------
     Ag        38      38       0       0       0       0
     B1g       12      12       0       0       0       0
     B2g       18      18       0       0       0       0
     B3g       18      18       0       0       0       0
     Au         9       9       0       0       0       0
     B1u       31      31       0       0       0       0
     B2u       21      21       0       0       0       0
     B3u       21      21       0       0       0       0
   -------------------------------------------------------
    Total     168     168      28      28      28       0
   -------------------------------------------------------

  ==> Integral Setup <==

  DFHelper Memory: AOs need 0.156 GiB; user supplied 100.375 GiB. Using in-core AOs.

  ==> MemDFJK: Density-Fitted J/K Matrices <==

    J tasked:                   Yes
    K tasked:                    No
    wK tasked:                   No
    OpenMP threads:              24
    Memory [MiB]:            102784
    Algorithm:                 Core
    Schwarz Cutoff:           1E-12
    Mask sparsity (%):      13.8039
    Fitting Condition:        1E-10

   => Auxiliary Basis Set <=

  Basis Set: (DEF2-TZVPPD AUX)
    Blend: DEF2-TZVPP-JKFIT
    Number of shells: 147
    Number of basis function: 765
    Number of Cartesian functions: 1152
    Spherical Harmonics?: true
    Max angular momentum: 6

  Cached 100.0% of DFT collocation blocks in 0.208 [GiB].

  Minimum eigenvalue in the overlap matrix is 1.7346763020E-03.
  Using Symmetric Orthogonalization.

  SCF Guess: Orbitals guess was supplied from a previous computation.

  ==> Iterations <==

                           Total Energy        Delta E     RMS |[F,P]|

   @DF-RKS iter   0:  -442.53596929534058   -4.42536e+02   9.43004e-04 
   @DF-RKS iter   1:  -442.54465318003565   -8.68388e-03   7.38249e-05 DIIS
   @DF-RKS iter   2:  -442.54462789217331    2.52879e-05   1.50856e-04 DIIS
   @DF-RKS iter   3:  -442.54466816932711   -4.02772e-05   2.48731e-05 DIIS
   @DF-RKS iter   4:  -442.54466887065507   -7.01328e-07   8.55927e-06 DIIS
   @DF-RKS iter   5:  -442.54466900299388   -1.32339e-07   2.22043e-06 DIIS
   @DF-RKS iter   6:  -442.54466901058800   -7.59411e-09   7.59888e-07 DIIS
   @DF-RKS iter   7:  -442.54466901128228   -6.94286e-10   1.21290e-07 DIIS
   @DF-RKS iter   8:  -442.54466901133702   -5.47402e-11   2.15476e-08 DIIS
   @DF-RKS iter   9:  -442.54466901133804   -1.02318e-12   1.26597e-09 DIIS
  Energy and wave function converged.


  ==> Post-Iterations <==

    Orbital Energies [Eh]
    ---------------------

    Doubly Occupied:                                                      

       1Ag    -3.773843     1B1u   -3.773843     2Ag    -3.745164  
       2B1u   -2.406316     3Ag    -2.406194     1B2u   -2.403854  
       1B3u   -2.403854     1B3g   -2.403853     1B2g   -2.403853  
       3B1u   -2.379316     2B2u   -2.373325     2B3u   -2.373325  
       4Ag    -0.498290     2B2g   -0.479168     2B3g   -0.479168  
       4B1u   -0.475165     3B3u   -0.471923     3B2u   -0.471923  
       1B1g   -0.468741     5Ag    -0.468738     1Au    -0.468467  
       5B1u   -0.468463     3B2g   -0.436421     3B3g   -0.436421  
       2B1g   -0.436095     6Ag    -0.436090     7Ag    -0.433760  
       8Ag    -0.365921  

    Virtual:                                                              

       6B1u   -0.335672     9Ag    -0.252774     4B2u   -0.197012  
       4B3u   -0.197012     7B1u   -0.173428     4B3g   -0.156742  
       4B2g   -0.156742     5B3u   -0.092501     5B2u   -0.092501  
      10Ag    -0.062759    11Ag    -0.047210     8B1u   -0.024675  
       9B1u    0.002127     6B3u    0.030776     6B2u    0.030776  
      12Ag     0.033636     5B3g    0.060961     5B2g    0.060961  
       7B3u    0.098714     7B2u    0.098714    10B1u    0.110841  
      13Ag     0.112129    14Ag     0.172090     3B1g    0.172093  
       6B3g    0.189360     6B2g    0.189360    11B1u    0.213624  
       2Au     0.213625    12B1u    0.220844    15Ag     0.285631  
       4B1g    0.285632     8B3u    0.296250     8B2u    0.296250  
      16Ag     0.398745    13B1u    0.465334     7B2g    0.468937  
       7B3g    0.468937    17Ag     0.564477    14B1u    1.276109  
       9B3u    1.305867     9B2u    1.305867     3Au     1.333376  
      15B1u    1.333403     5B1g    1.336455    18Ag     1.336480  
      10B2u    1.337029    10B3u    1.337029     8B3g    1.337034  
       8B2g    1.337034     9B3g    1.351464     9B2g    1.351464  
      11B2u    1.358612    11B3u    1.358612    19Ag     1.361623  
       4Au     1.368823    16B1u    1.368862    12B2u    1.372771  
      12B3u    1.372771    13B3u    1.392542    13B2u    1.392542  
      17B1u    1.402991    10B3g    1.419334    10B2g    1.419334  
      20Ag     1.435411    18B1u    1.476078    14B3u    1.490692  
      14B2u    1.490692    21Ag     1.605022    19B1u    1.666208  
      22Ag     1.778460     6B1g    1.778486    20B1u    1.787813  
       5Au     1.787839    11B3g    1.820519    11B2g    1.820519  
      23Ag     1.838856     7B1g    1.838882    15B2u    1.852381  
      15B3u    1.852381    21B1u    1.889375    24Ag     1.920477  
      12B3g    1.944312    12B2g    1.944312    25Ag     2.015233  
      22B1u    2.051730    26Ag     2.369583    23B1u    4.440684  
      16B3u    4.461849    16B2u    4.461849     6Au     4.479060  
      24B1u    4.479403    17B3u    4.481773    17B2u    4.481773  
      13B3g    4.481777    13B2g    4.481777     8B1g    4.482542  
      27Ag     4.482879     7Au     4.511710    25B1u    4.512205  
      18B3u    4.512512    18B2u    4.512512    14B2g    4.513936  
      14B3g    4.513936    19B3u    4.556757    19B2u    4.556757  
      28Ag     4.618491    26B1u    4.725763    20B3u    5.222341  
      20B2u    5.222341     8Au     5.222831     9B1g    5.223059  
      27B1u    5.223065    29Ag     5.223292    15B2g    5.223718  
      15B3g    5.223718    21B3u    5.223928    21B2u    5.223928  
      28B1u    5.223999    16B2g    5.224015    16B3g    5.224015  
      30Ag     5.224627    29B1u    5.224649    10B1g    5.225230  
       9Au     5.225230    31Ag     5.226013    11B1g    5.254308  
      17B3g    5.254401    17B2g    5.254401    32Ag     5.254673  
      18B3g    5.257194    18B2g    5.257194    33Ag     5.260256  
      12B1g    5.261111    34Ag     5.262606    35Ag    33.089548  
      30B1u   33.208300    36Ag    33.578448    37Ag   110.574015  
      31B1u  110.607983    38Ag   110.739758  

    Final Occupation by Irrep:
             Ag   B1g   B2g   B3g    Au   B1u   B2u   B3u 
    DOCC [     8,    2,    3,    3,    1,    5,    3,    3 ]

  @DF-RKS Final Energy:  -442.54466901133804

   => Energetics <=

    Nuclear Repulsion Energy =            174.3504364555400343
    One-Electron Energy =               -1123.0958593500574807
    Two-Electron Energy =                 550.5043478682759996
    DFT Exchange-Correlation Energy =     -44.3035939850966116
    Empirical Dispersion Energy =           0.0000000000000000
    VV10 Nonlocal Energy =                  0.0000000000000000
    Total Energy =                       -442.5446690113380441

Computation Completed


Properties will be evaluated at   0.000000,   0.000000,   0.000000 [a0]

Properties computed using the SCF density matrix

  Nuclear Dipole Moment: [e a0]
     X:    -0.0000      Y:     0.0000      Z:     0.0000

  Electronic Dipole Moment: [e a0]
     X:     0.0000      Y:     0.0000      Z:     0.0000

  Dipole Moment: [e a0]
     X:    -0.0000      Y:     0.0000      Z:     0.0000     Total:     0.0000

  Dipole Moment: [D]
     X:    -0.0000      Y:     0.0000      Z:     0.0000     Total:     0.0000


*** tstop() called on bp1-compute00066.data.bp.acrc.priv at Fri Oct 29 08:04:37 2021
Module time:
	user time   =      58.65 seconds =       0.98 minutes
	system time =       1.79 seconds =       0.03 minutes
	total time  =          6 seconds =       0.10 minutes
Total time:
	user time   =    2072.23 seconds =      34.54 minutes
	system time =      53.54 seconds =       0.89 minutes
	total time  =        307 seconds =       5.12 minutes

*** tstart() called on bp1-compute00066.data.bp.acrc.priv
*** at Fri Oct 29 08:04:37 2021


         ------------------------------------------------------------
                                   SCF GRAD                          
                          Rob Parrish, Justin Turney,                
                       Andy Simmonett, and Alex Sokolov              
         ------------------------------------------------------------

  ==> Geometry <==

    Molecular point group: d2h
    Full point group: D_inf_h

    Geometry (in Angstrom), charge = 1, multiplicity = 1:

       Center              X                  Y                   Z               Mass       
    ------------   -----------------  -----------------  -----------------  -----------------
         AG           0.000000000000     0.000000000000     0.000000000000   106.905091600000
         AG          -0.000000000000     0.000000000000     2.739209848502   106.905091600000
         AG          -0.000000000000     0.000000000000    -2.739209848502   106.905091600000

  Nuclear repulsion =  174.350436455540034

  ==> Basis Set <==

  Basis Set: DEF2-TZVPPD
    Blend: DEF2-TZVPPD
    Number of shells: 48
    Number of basis function: 168
    Number of Cartesian functions: 213
    Spherical Harmonics?: true
    Max angular momentum: 4

  Core potential: DEF2-TZVPPD
    Number of shells: 12
    Number of ECP primitives: 42
    Number of ECP core electrons: 84
    Max angular momentum: 3

  ==> DFJKGrad: Density-Fitted SCF Gradients <==

    Gradient:                    1
    J tasked:                  Yes
    K tasked:                   No
    wK tasked:                  No
    OpenMP threads:             24
    Integrals threads:          24
    Memory [MiB]:           102996
    Schwarz Cutoff:          0E+00
    Fitting Condition:       1E-10

   => Auxiliary Basis Set <=

  Basis Set: (DEF2-TZVPPD AUX)
    Blend: DEF2-TZVPP-JKFIT
    Number of shells: 147
    Number of basis function: 765
    Number of Cartesian functions: 1152
    Spherical Harmonics?: true
    Max angular momentum: 6

  ==> DFT Potential <==

   => Composite Functional: GAM <= 

   GAM GGA Minessota Exchange-Correlation Functional

    H.S. Yu, et al., Phys. Chem. Chem. Phys. 17, 12146, 2015


    Deriv               =              1
    GGA                 =           TRUE
    Meta                =          FALSE

    Exchange Hybrid     =          FALSE
    MP2 Hybrid          =          FALSE

   => Exchange Functionals <=

    1.0000     XC_GGA_X_GAM

   => Correlation Functionals <=

    1.0000     XC_GGA_C_GAM

   => Molecular Quadrature <=

    Radial Scheme          =       TREUTLER
    Pruning Scheme         =           FLAT
    Nuclear Scheme         =       TREUTLER

    BS radius alpha        =              1
    Pruning alpha          =              1
    Radial Points          =             75
    Spherical Points       =            302
    Total Points           =          67368
    Total Blocks           =            620
    Max Points             =            248
    Max Functions          =            144


  -Total Gradient:
     Atom            X                  Y                   Z
    ------   -----------------  -----------------  -----------------
       1        0.000000000000    -0.000000000000     0.000000000000
       2        0.000000000000    -0.000000000000    -0.064132865347
       3        0.000000000000    -0.000000000000     0.064132865347


*** tstop() called on bp1-compute00066.data.bp.acrc.priv at Fri Oct 29 08:04:43 2021
Module time:
	user time   =      43.73 seconds =       0.73 minutes
	system time =       2.94 seconds =       0.05 minutes
	total time  =          6 seconds =       0.10 minutes
Total time:
	user time   =    2115.98 seconds =      35.27 minutes
	system time =      56.48 seconds =       0.94 minutes
	total time  =        313 seconds =       5.22 minutes


  ==> Adding ECP gradient terms (computed numerically) <==

  -ECP Gradient:
     Atom            X                  Y                   Z
    ------   -----------------  -----------------  -----------------
       1       -0.000000000000    -0.000000000000     0.000000000000
       2        0.000000000000     0.000000000000     0.063357735372
       3        0.000000000000     0.000000000000    -0.063357735372


  -Total Gradient:
     Atom            X                  Y                   Z
    ------   -----------------  -----------------  -----------------
       1       -0.000000000000    -0.000000000000     0.000000000000
       2        0.000000000000     0.000000000000    -0.000775129975
       3        0.000000000000     0.000000000000     0.000775129975


			-----------------------------------------
			 OPTKING 2.0: for geometry optimizations 
			  - R.A. King,  Bethel University        
			-----------------------------------------
	At level 1: Red. Int., RFO, no backsteps, dynamic trust

	Previous internal coordinate definitions found.
	---Fragment 1 Geometry and Gradient---
	 AG          0.0000000000        0.0000000000        0.0000000000
	 AG         -0.0000000000        0.0000000000        5.1763564138
	 AG         -0.0000000000        0.0000000000       -5.1763564138
	            -0.0000000000       -0.0000000000        0.0000000000
	             0.0000000000        0.0000000000       -0.0007751300
	             0.0000000000        0.0000000000        0.0007751300

	---Fragment 1 Intrafragment Coordinates---
	 - Coordinate -           - BOHR/RAD -       - ANG/DEG -
	 R(1,2)           =         5.176356	       2.739210
	 R(1,3)           =         5.176356	       2.739210
	 L(2,1,3)         =         3.141593	     180.000000
	 l(2,1,3)         =         3.141593	     180.000000

	Current energy   :      -442.5446690113

	Energy change for the previous step:
		Projected    :        -0.0050078951
		Actual       :        -0.0002760183
	Energy ratio indicates iffy step: Trust radius decreased to 1.250e-01.


	Performing BFGS update.
	Previous computed or guess Hessian on step 1.
	Steps to be used in Hessian update: 2 1
	Taking RFO optimization step.
	Going to follow RFO solution 1.
	Using RFO vector 1.
	Norm of target step-size    0.02638
	Projected energy change by RFO approximation:         0.0002169407

	Back-transformation to cartesian coordinates...
	Successfully converged to displaced geometry.

	--- Internal Coordinate Step in ANG or DEG, aJ/ANG or AJ/DEG ---
	 ---------------------------------------------------------------------------
	   Coordinate                Previous        Force       Change         New 
	   ----------                --------       ------       ------       ------
	    1 R(1,2)          =      2.739210     0.006386     0.009870     2.749080
	    2 R(1,3)          =      2.739210     0.006386     0.009870     2.749080
	    3 L(2,1,3)        =    180.000000     0.000000     0.000000   180.000000
	    4 l(2,1,3)        =    180.000000     0.000000     0.000000   180.000000
	 ---------------------------------------------------------------------------
	Successfully symmetrized geometry.

  ==> Convergence Check <==

  Measures of convergence in internal coordinates in au.
  Criteria marked as inactive (o), active & met (*), and active & unmet ( ).
  ---------------------------------------------------------------------------------------------
   Step     Total Energy     Delta E     MAX Force     RMS Force      MAX Disp      RMS Disp   
  ---------------------------------------------------------------------------------------------
    Convergence Criteria    1.00e-06 *    3.00e-04 *             o    1.20e-03 *             o
  ---------------------------------------------------------------------------------------------
      3    -442.54466901   -2.76e-04      7.75e-04      5.48e-04 o    1.87e-02      1.32e-02 o  ~
  ---------------------------------------------------------------------------------------------

	Writing optimization data to binary file.
	Structure for next step:
	Cartesian Geometry (in Angstrom)
	   AG     0.0000000000   0.0000000000   0.0000000000
	   AG    -0.0000000000   0.0000000000   2.7490801930
	   AG    -0.0000000000   0.0000000000  -2.7490801930
			--------------------------
			 OPTKING Finished Execution 
			--------------------------

    Structure for next step:
    Molecular point group: d2h
    Full point group: D_inf_h

    Geometry (in Angstrom), charge = 1, multiplicity = 1:

    AG           0.000000000000    -0.000000000000     0.000000000000
    AG           0.000000000000     0.000000000000     2.749080203801
    AG           0.000000000000     0.000000000000    -2.749080203801

gradient() will perform analytic gradient computation.

*** tstart() called on bp1-compute00066.data.bp.acrc.priv
*** at Fri Oct 29 08:07:01 2021

   => Loading Basis Set <=

    Name: DEF2-TZVPPD
    Role: ORBITAL
    Keyword: BASIS
    atoms 1-3 entry AG         line  2174 (ECP: line  3646) file /work/zw18965/.conda/envs/p4env/share/psi4/basis/def2-tzvppd.gbs 

    !!!  WARNING: ECP capability is in beta. Please check occupations closely.  !!!


         ---------------------------------------------------------
                                   SCF
               by Justin Turney, Rob Parrish, Andy Simmonett
                          and Daniel G. A. Smith
                              RKS Reference
                       24 Threads, 137329 MiB Core
         ---------------------------------------------------------

  ==> Geometry <==

    Molecular point group: d2h
    Full point group: D_inf_h

    Geometry (in Angstrom), charge = 1, multiplicity = 1:

       Center              X                  Y                   Z               Mass       
    ------------   -----------------  -----------------  -----------------  -----------------
         AG          -0.000000000000     0.000000000000     0.000000000000   106.905091600000
         AG           0.000000000000     0.000000000000     2.749080203801   106.905091600000
         AG           0.000000000000     0.000000000000    -2.749080203801   106.905091600000

  Running in d2h symmetry.

  Rotational constants: A = ************  B =      0.01043  C =      0.01043 [cm^-1]
  Rotational constants: A = ************  B =    312.76201  C =    312.76201 [MHz]
  Nuclear repulsion =  173.724444986845555

  Charge       = 1
  Multiplicity = 1
  Electrons    = 56
  Nalpha       = 28
  Nbeta        = 28

  ==> Algorithm <==

  SCF Algorithm Type is DF.
  DIIS enabled.
  MOM disabled.
  Fractional occupation disabled.
  Guess Type is READ.
  Energy threshold   = 1.00e-08
  Density threshold  = 1.00e-08
  Integral threshold = 0.00e+00

  ==> Primary Basis <==

  Basis Set: DEF2-TZVPPD
    Blend: DEF2-TZVPPD
    Number of shells: 48
    Number of basis function: 168
    Number of Cartesian functions: 213
    Spherical Harmonics?: true
    Max angular momentum: 4

  Core potential: DEF2-TZVPPD
    Number of shells: 12
    Number of ECP primitives: 42
    Number of ECP core electrons: 84
    Max angular momentum: 3

  ==> DFT Potential <==

   => Composite Functional: GAM <= 

   GAM GGA Minessota Exchange-Correlation Functional

    H.S. Yu, et al., Phys. Chem. Chem. Phys. 17, 12146, 2015


    Deriv               =              1
    GGA                 =           TRUE
    Meta                =          FALSE

    Exchange Hybrid     =          FALSE
    MP2 Hybrid          =          FALSE

   => Exchange Functionals <=

    1.0000     XC_GGA_X_GAM

   => Correlation Functionals <=

    1.0000     XC_GGA_C_GAM

   => Molecular Quadrature <=

    Radial Scheme          =       TREUTLER
    Pruning Scheme         =           FLAT
    Nuclear Scheme         =       TREUTLER

    BS radius alpha        =              1
    Pruning alpha          =              1
    Radial Points          =             75
    Spherical Points       =            302
    Total Points           =          67368
    Total Blocks           =            614
    Max Points             =            256
    Max Functions          =            144

   => Loading Basis Set <=

    Name: (DEF2-TZVPPD AUX)
    Role: JKFIT
    Keyword: DF_BASIS_SCF
    atoms 1-3 entry AG         line  4369 file /work/zw18965/.conda/envs/p4env/share/psi4/basis/def2-tzvpp-jkfit.gbs 

   => Loading Basis Set <=

    Name: DEF2-TZVPPD
    Role: ORBITAL
    Keyword: BASIS
    atoms 1-3 entry AG         line  2174 (ECP: line  3646) file /work/zw18965/.conda/envs/p4env/share/psi4/basis/def2-tzvppd.gbs 

    !!!  WARNING: ECP capability is in beta. Please check occupations closely.  !!!

  Reading orbitals from file 180, no projection.

  ==> Pre-Iterations <==

   -------------------------------------------------------
    Irrep   Nso     Nmo     Nalpha   Nbeta   Ndocc  Nsocc
   -------------------------------------------------------
     Ag        38      38       0       0       0       0
     B1g       12      12       0       0       0       0
     B2g       18      18       0       0       0       0
     B3g       18      18       0       0       0       0
     Au         9       9       0       0       0       0
     B1u       31      31       0       0       0       0
     B2u       21      21       0       0       0       0
     B3u       21      21       0       0       0       0
   -------------------------------------------------------
    Total     168     168      28      28      28       0
   -------------------------------------------------------

  ==> Integral Setup <==

  DFHelper Memory: AOs need 0.156 GiB; user supplied 100.375 GiB. Using in-core AOs.

  ==> MemDFJK: Density-Fitted J/K Matrices <==

    J tasked:                   Yes
    K tasked:                    No
    wK tasked:                   No
    OpenMP threads:              24
    Memory [MiB]:            102783
    Algorithm:                 Core
    Schwarz Cutoff:           1E-12
    Mask sparsity (%):      13.8605
    Fitting Condition:        1E-10

   => Auxiliary Basis Set <=

  Basis Set: (DEF2-TZVPPD AUX)
    Blend: DEF2-TZVPP-JKFIT
    Number of shells: 147
    Number of basis function: 765
    Number of Cartesian functions: 1152
    Spherical Harmonics?: true
    Max angular momentum: 6

  Cached 100.0% of DFT collocation blocks in 0.208 [GiB].

  Minimum eigenvalue in the overlap matrix is 1.7766292067E-03.
  Using Symmetric Orthogonalization.

  SCF Guess: Orbitals guess was supplied from a previous computation.

  ==> Iterations <==

                           Total Energy        Delta E     RMS |[F,P]|

   @DF-RKS iter   0:  -442.54258769413264   -4.42543e+02   2.13436e-04 
   @DF-RKS iter   1:  -442.54467285216742   -2.08516e-03   1.89588e-05 DIIS
   @DF-RKS iter   2:  -442.54467111080709    1.74136e-06   3.91327e-05 DIIS
   @DF-RKS iter   3:  -442.54467380795006   -2.69714e-06   6.23740e-06 DIIS
   @DF-RKS iter   4:  -442.54467385286557   -4.49155e-08   2.02994e-06 DIIS
   @DF-RKS iter   5:  -442.54467386054665   -7.68108e-09   5.50159e-07 DIIS
   @DF-RKS iter   6:  -442.54467386102243   -4.75779e-10   1.77636e-07 DIIS
   @DF-RKS iter   7:  -442.54467386105955   -3.71188e-11   2.94301e-08 DIIS
   @DF-RKS iter   8:  -442.54467386106262   -3.06954e-12   5.25269e-09 DIIS
  Energy and wave function converged.


  ==> Post-Iterations <==

    Orbital Energies [Eh]
    ---------------------

    Doubly Occupied:                                                      

       1Ag    -3.773539     1B1u   -3.773539     2Ag    -3.744769  
       2B1u   -2.405965     3Ag    -2.405853     1B3u   -2.403567  
       1B2u   -2.403567     1B2g   -2.403566     1B3g   -2.403566  
       3B1u   -2.378857     2B2u   -2.372967     2B3u   -2.372967  
       4Ag    -0.497309     2B2g   -0.478560     2B3g   -0.478560  
       4B1u   -0.474775     3B3u   -0.471575     3B2u   -0.471575  
       1B1g   -0.468460     5Ag    -0.468457     1Au    -0.468199  
       5B1u   -0.468196     3B3g   -0.436259     3B2g   -0.436259  
       2B1g   -0.435788     6Ag    -0.435782     7Ag    -0.433718  
       8Ag    -0.365496  

    Virtual:                                                              

       6B1u   -0.335467     9Ag    -0.253040     4B3u   -0.196689  
       4B2u   -0.196689     7B1u   -0.173631     4B2g   -0.156720  
       4B3g   -0.156720     5B3u   -0.092851     5B2u   -0.092851  
      10Ag    -0.063150    11Ag    -0.047435     8B1u   -0.024611  
       9B1u    0.001806     6B2u    0.031095     6B3u    0.031095  
      12Ag     0.033370     5B3g    0.061003     5B2g    0.061003  
       7B3u    0.098569     7B2u    0.098569    10B1u    0.110618  
      13Ag     0.111317    14Ag     0.172593     3B1g    0.172596  
       6B2g    0.188523     6B3g    0.188523    11B1u    0.213855  
       2Au     0.213857    12B1u    0.219015    15Ag     0.285208  
       4B1g    0.285210     8B3u    0.295400     8B2u    0.295400  
      16Ag     0.397486    13B1u    0.464098     7B2g    0.467818  
       7B3g    0.467818    17Ag     0.564957    14B1u    1.280377  
       9B2u    1.306958     9B3u    1.306958     3Au     1.333826  
      15B1u    1.333854     5B1g    1.336680    18Ag     1.336707  
      10B3u    1.337281    10B2u    1.337281     8B2g    1.337286  
       8B3g    1.337286     9B3g    1.351238     9B2g    1.351238  
      11B2u    1.357940    11B3u    1.357940    19Ag     1.361798  
       4Au     1.369010    16B1u    1.369051    12B2u    1.373051  
      12B3u    1.373051    13B2u    1.392843    13B3u    1.392843  
      17B1u    1.399750    10B3g    1.418637    10B2g    1.418637  
      20Ag     1.435182    18B1u    1.476187    14B2u    1.489959  
      14B3u    1.489959    21Ag     1.604264    19B1u    1.663553  
      22Ag     1.778637     6B1g    1.778662    20B1u    1.788025  
       5Au     1.788049    11B2g    1.821275    11B3g    1.821275  
      23Ag     1.838919     7B1g    1.838945    15B3u    1.852193  
      15B2u    1.852193    21B1u    1.888388    24Ag     1.920378  
      12B3g    1.943726    12B2g    1.943726    25Ag     2.012304  
      22B1u    2.050319    26Ag     2.366009    23B1u    4.442564  
      16B3u    4.463457    16B2u    4.463457     6Au     4.479487  
      24B1u    4.479827    17B2u    4.482047    17B3u    4.482047  
      13B3g    4.482050    13B2g    4.482050     8B1g    4.482766  
      27Ag     4.483101     7Au     4.511916    25B1u    4.512407  
      18B2u    4.512847    18B3u    4.512847    14B3g    4.513486  
      14B2g    4.513486    19B3u    4.555211    19B2u    4.555211  
      28Ag     4.616645    26B1u    4.720966    20B3u    5.222655  
      20B2u    5.222655     8Au     5.223140     9B1g    5.223360  
      27B1u    5.223385    29Ag     5.223604    15B3g    5.224014  
      15B2g    5.224014    21B2u    5.224216    21B3u    5.224216  
      28B1u    5.224219    16B3g    5.224315    16B2g    5.224315  
      30Ag     5.224892    29B1u    5.224913    10B1g    5.225486  
       9Au     5.225486    31Ag     5.226315    11B1g    5.254699  
      17B2g    5.254770    17B3g    5.254770    32Ag     5.255082  
      18B2g    5.257545    18B3g    5.257545    33Ag     5.260550  
      12B1g    5.261393    34Ag     5.262633    35Ag    33.088063  
      30B1u   33.205152    36Ag    33.572561    37Ag   110.573838  
      31B1u  110.607200    38Ag   110.738081  

    Final Occupation by Irrep:
             Ag   B1g   B2g   B3g    Au   B1u   B2u   B3u 
    DOCC [     8,    2,    3,    3,    1,    5,    3,    3 ]

  @DF-RKS Final Energy:  -442.54467386106262

   => Energetics <=

    Nuclear Repulsion Energy =            173.7244449868455547
    One-Electron Energy =               -1121.8641042795361500
    Two-Electron Energy =                 549.8976359210353166
    DFT Exchange-Correlation Energy =     -44.3026504894073909
    Empirical Dispersion Energy =           0.0000000000000000
    VV10 Nonlocal Energy =                  0.0000000000000000
    Total Energy =                       -442.5446738610626198

Computation Completed


Properties will be evaluated at   0.000000,   0.000000,   0.000000 [a0]

Properties computed using the SCF density matrix

  Nuclear Dipole Moment: [e a0]
     X:     0.0000      Y:    -0.0000      Z:    -0.0000

  Electronic Dipole Moment: [e a0]
     X:     0.0000      Y:     0.0000      Z:     0.0000

  Dipole Moment: [e a0]
     X:     0.0000      Y:    -0.0000      Z:    -0.0000     Total:     0.0000

  Dipole Moment: [D]
     X:     0.0000      Y:    -0.0000      Z:    -0.0000     Total:     0.0000


*** tstop() called on bp1-compute00066.data.bp.acrc.priv at Fri Oct 29 08:07:07 2021
Module time:
	user time   =      55.39 seconds =       0.92 minutes
	system time =       1.57 seconds =       0.03 minutes
	total time  =          6 seconds =       0.10 minutes
Total time:
	user time   =    3077.82 seconds =      51.30 minutes
	system time =      75.85 seconds =       1.26 minutes
	total time  =        457 seconds =       7.62 minutes

*** tstart() called on bp1-compute00066.data.bp.acrc.priv
*** at Fri Oct 29 08:07:07 2021


         ------------------------------------------------------------
                                   SCF GRAD                          
                          Rob Parrish, Justin Turney,                
                       Andy Simmonett, and Alex Sokolov              
         ------------------------------------------------------------

  ==> Geometry <==

    Molecular point group: d2h
    Full point group: D_inf_h

    Geometry (in Angstrom), charge = 1, multiplicity = 1:

       Center              X                  Y                   Z               Mass       
    ------------   -----------------  -----------------  -----------------  -----------------
         AG           0.000000000000     0.000000000000     0.000000000000   106.905091600000
         AG           0.000000000000    -0.000000000000     2.749080203801   106.905091600000
         AG           0.000000000000    -0.000000000000    -2.749080203801   106.905091600000

  Nuclear repulsion =  173.724444986845555

  ==> Basis Set <==

  Basis Set: DEF2-TZVPPD
    Blend: DEF2-TZVPPD
    Number of shells: 48
    Number of basis function: 168
    Number of Cartesian functions: 213
    Spherical Harmonics?: true
    Max angular momentum: 4

  Core potential: DEF2-TZVPPD
    Number of shells: 12
    Number of ECP primitives: 42
    Number of ECP core electrons: 84
    Max angular momentum: 3

  ==> DFJKGrad: Density-Fitted SCF Gradients <==

    Gradient:                    1
    J tasked:                  Yes
    K tasked:                   No
    wK tasked:                  No
    OpenMP threads:             24
    Integrals threads:          24
    Memory [MiB]:           102996
    Schwarz Cutoff:          0E+00
    Fitting Condition:       1E-10

   => Auxiliary Basis Set <=

  Basis Set: (DEF2-TZVPPD AUX)
    Blend: DEF2-TZVPP-JKFIT
    Number of shells: 147
    Number of basis function: 765
    Number of Cartesian functions: 1152
    Spherical Harmonics?: true
    Max angular momentum: 6

  ==> DFT Potential <==

   => Composite Functional: GAM <= 

   GAM GGA Minessota Exchange-Correlation Functional

    H.S. Yu, et al., Phys. Chem. Chem. Phys. 17, 12146, 2015


    Deriv               =              1
    GGA                 =           TRUE
    Meta                =          FALSE

    Exchange Hybrid     =          FALSE
    MP2 Hybrid          =          FALSE

   => Exchange Functionals <=

    1.0000     XC_GGA_X_GAM

   => Correlation Functionals <=

    1.0000     XC_GGA_C_GAM

   => Molecular Quadrature <=

    Radial Scheme          =       TREUTLER
    Pruning Scheme         =           FLAT
    Nuclear Scheme         =       TREUTLER

    BS radius alpha        =              1
    Pruning alpha          =              1
[...]

   @DF-RKS iter SAD:  -442.12363496642877   -4.42124e+02   0.00000e+00 
    Occupation by irrep:
             A1    A2    B1    B2 
    DOCC [    10,    4,    5,    9 ]

   @DF-RKS iter   1:  -442.51539294951112   -3.91758e-01   3.28852e-03 DIIS
    Occupation by irrep:
             A1    A2    B1    B2 
    DOCC [    11,    4,    5,    8 ]

   @DF-RKS iter   2:  -441.69062120071101    8.24772e-01   1.40625e-02 DIIS
   @DF-RKS iter   3:  -442.52162701391006   -8.31006e-01   2.96694e-03 DIIS
   @DF-RKS iter   4:  -442.54411836406678   -2.24914e-02   4.44573e-04 DIIS
   @DF-RKS iter   5:  -442.54445975868612   -3.41395e-04   3.16307e-04 DIIS
   @DF-RKS iter   6:  -442.54463346026097   -1.73702e-04   8.49575e-05 DIIS
   @DF-RKS iter   7:  -442.54467294910108   -3.94888e-05   7.93600e-06 DIIS
   @DF-RKS iter   8:  -442.54467334123933   -3.92138e-07   1.04887e-06 DIIS
   @DF-RKS iter   9:  -442.54467334864853   -7.40920e-09   5.14987e-08 DIIS
   @DF-RKS iter  10:  -442.54467334865507   -6.53699e-12   7.27579e-09 DIIS
  Energy and wave function converged.


  ==> Post-Iterations <==

    Orbital Energies [Eh]
    ---------------------

    Doubly Occupied:                                                      

       1A1    -3.773513     1B2    -3.773512     2A1    -3.744735  
       2B2    -2.405935     3A1    -2.405824     4A1    -2.403542  
       1B1    -2.403542     3B2    -2.403541     1A2    -2.403541  
       4B2    -2.378817     5A1    -2.372936     2B1    -2.372936  
       6A1    -0.497224     5B2    -0.478508     2A2    -0.478508  
       6B2    -0.474741     7A1    -0.471545     3B1    -0.471545  
       4B1    -0.468436     8A1    -0.468433     3A2    -0.468176  
       7B2    -0.468172     4A2    -0.436245     8B2    -0.436245  
       5B1    -0.435762     9A1    -0.435756    10A1    -0.433714  
      11A1    -0.365460  

    Virtual:                                                              

       9B2    -0.335449    12A1    -0.253063     6B1    -0.196661  
      13A1    -0.196661    10B2    -0.173649     5A2    -0.156718  
      11B2    -0.156718    14A1    -0.092881     7B1    -0.092881  
      15A1    -0.063186    16A1    -0.047454    12B2    -0.024605  
      13B2     0.001778    17A1     0.031123     8B1     0.031123  
      18A1     0.033347     6A2     0.061006    14B2     0.061006  
      19A1     0.098557     9B1     0.098557    15B2     0.110599  
      20A1     0.111248    21A1     0.172637    10B1     0.172640  
       7A2     0.188450    16B2     0.188450    17B2     0.213875  
       8A2     0.213877    18B2     0.218856    22A1     0.285172  
      11B1     0.285173    12B1     0.295326    23A1     0.295326  
      24A1     0.397375    19B2     0.463991     9A2     0.467720  
      20B2     0.467720    25A1     0.564998    21B2     1.280739  
      26A1     1.307050    13B1     1.307050    10A2     1.333865  
      22B2     1.333893    14B1     1.336700    27A1     1.336727  
      15B1     1.337303    28A1     1.337303    11A2     1.337308  
      23B2     1.337308    12A2     1.351219    24B2     1.351219  
      29A1     1.357883    16B1     1.357883    30A1     1.361810  
      13A2     1.369026    25B2     1.369068    17B1     1.373075  
      31A1     1.373075    18B1     1.392869    32A1     1.392869  
      26B2     1.399467    14A2     1.418577    27B2     1.418577  
      33A1     1.435162    28B2     1.476202    19B1     1.489896  
      34A1     1.489896    35A1     1.604201    29B2     1.663321  
      36A1     1.778652    20B1     1.778677    30B2     1.788043  
      15A2     1.788067    16A2     1.821338    31B2     1.821338  
      37A1     1.838925    21B1     1.838950    22B1     1.852176  
      38A1     1.852176    32B2     1.888304    39A1     1.920352  
      17A2     1.943675    33B2     1.943675    40A1     2.012070  
      34B2     2.050198    41A1     2.365698    35B2     4.442728  
      23B1     4.463594    42A1     4.463594    18A2     4.479524  
      36B2     4.479863    24B1     4.482070    43A1     4.482070  
      19A2     4.482074    37B2     4.482074    25B1     4.482786  
      44A1     4.483120    20A2     4.511934    38B2     4.512425  
      26B1     4.512876    45A1     4.512876    21A2     4.513447  
      39B2     4.513447    46A1     4.555079    27B1     4.555080  
      47A1     4.616485    40B2     4.720553    28B1     5.222682  
      48A1     5.222682    22A2     5.223167    29B1     5.223386  
      41B2     5.223412    49A1     5.223631    23A2     5.224040  
      42B2     5.224040    43B2     5.224239    50A1     5.224241  
      30B1     5.224241    44B2     5.224340    24A2     5.224340  
      51A1     5.224915    45B2     5.224936    31B1     5.225509  
      25A2     5.225509    52A1     5.226342    32B1     5.254732  
      26A2     5.254802    46B2     5.254802    53A1     5.255117  
      47B2     5.257575    27A2     5.257575    54A1     5.260576  
      33B1     5.261417    55A1     5.262636    56A1    33.087936  
      48B2    33.204881    57A1    33.572050    58A1   110.573823  
      49B2   110.607133    59A1   110.737935  

    Final Occupation by Irrep:
             A1    A2    B1    B2 
    DOCC [    11,    4,    5,    8 ]

  @DF-RKS Final Energy:  -442.54467334865507

   => Energetics <=

    Nuclear Repulsion Energy =            173.6702047125712340
    One-Electron Energy =               -1121.7573681676760771
    Two-Electron Energy =                 549.8450599363800393
    DFT Exchange-Correlation Energy =     -44.3025698299303059
    Empirical Dispersion Energy =           0.0000000000000000
    VV10 Nonlocal Energy =                  0.0000000000000000
    Total Energy =                       -442.5446733486550670

Computation Completed


Properties will be evaluated at   0.000000,   0.000000,   0.000000 [a0]

Properties computed using the SCF density matrix

  Nuclear Dipole Moment: [e a0]
     X:     0.0000      Y:     0.0000      Z:     0.0000

  Electronic Dipole Moment: [e a0]
     X:     0.0001      Y:     0.0000      Z:     0.0000

  Dipole Moment: [e a0]
     X:     0.0001      Y:     0.0000      Z:     0.0000     Total:     0.0001

  Dipole Moment: [D]
     X:     0.0003      Y:     0.0000      Z:     0.0000     Total:     0.0003


*** tstop() called on bp1-compute00066.data.bp.acrc.priv at Fri Oct 29 08:35:09 2021
Module time:
	user time   =      71.37 seconds =       1.19 minutes
	system time =       2.17 seconds =       0.04 minutes
	total time  =          7 seconds =       0.12 minutes
Total time:
	user time   =   14650.84 seconds =     244.18 minutes
	system time =     323.14 seconds =       5.39 minutes
	total time  =       2139 seconds =      35.65 minutes

*** tstart() called on bp1-compute00066.data.bp.acrc.priv
*** at Fri Oct 29 08:35:09 2021


         ------------------------------------------------------------
                                   SCF GRAD                          
                          Rob Parrish, Justin Turney,                
                       Andy Simmonett, and Alex Sokolov              
         ------------------------------------------------------------

  ==> Geometry <==

    Molecular point group: c2v
    Full point group: C2v

    Geometry (in Angstrom), charge = 1, multiplicity = 1:

       Center              X                  Y                   Z               Mass       
    ------------   -----------------  -----------------  -----------------  -----------------
         AG          -0.000208942272     0.000000000000     0.000000000000   106.905091600000
         AG           0.000104471136     0.000000000000     2.749938775846   106.905091600000
         AG           0.000104471136     0.000000000000    -2.749938775846   106.905091600000

  Nuclear repulsion =  173.670204712571234

  ==> Basis Set <==

  Basis Set: DEF2-TZVPPD
    Blend: DEF2-TZVPPD
    Number of shells: 48
    Number of basis function: 168
    Number of Cartesian functions: 213
    Spherical Harmonics?: true
    Max angular momentum: 4

  Core potential: DEF2-TZVPPD
    Number of shells: 12
    Number of ECP primitives: 42
    Number of ECP core electrons: 84
    Max angular momentum: 3

  ==> DFJKGrad: Density-Fitted SCF Gradients <==

    Gradient:                    1
    J tasked:                  Yes
    K tasked:                   No
    wK tasked:                  No
    OpenMP threads:             24
    Integrals threads:          24
    Memory [MiB]:           102996
    Schwarz Cutoff:          0E+00
    Fitting Condition:       1E-10

   => Auxiliary Basis Set <=

  Basis Set: (DEF2-TZVPPD AUX)
    Blend: DEF2-TZVPP-JKFIT
    Number of shells: 147
    Number of basis function: 765
    Number of Cartesian functions: 1152
    Spherical Harmonics?: true
    Max angular momentum: 6

  ==> DFT Potential <==

   => Composite Functional: GAM <= 

   GAM GGA Minessota Exchange-Correlation Functional

    H.S. Yu, et al., Phys. Chem. Chem. Phys. 17, 12146, 2015


    Deriv               =              1
    GGA                 =           TRUE
    Meta                =          FALSE

    Exchange Hybrid     =          FALSE
    MP2 Hybrid          =          FALSE

   => Exchange Functionals <=

    1.0000     XC_GGA_X_GAM

   => Correlation Functionals <=

    1.0000     XC_GGA_C_GAM

   => Molecular Quadrature <=

    Radial Scheme          =       TREUTLER
    Pruning Scheme         =           FLAT
    Nuclear Scheme         =       TREUTLER

    BS radius alpha        =              1
    Pruning alpha          =              1
    Radial Points          =             75
    Spherical Points       =            302
    Total Points           =          67368
    Total Blocks           =            624
    Max Points             =            256
    Max Functions          =            144


  -Total Gradient:
     Atom            X                  Y                   Z
    ------   -----------------  -----------------  -----------------
       1        0.000014481338     0.000000000000     0.000000000000
       2       -0.000007176490     0.000000000000    -0.062330053702
       3       -0.000007176490     0.000000000000     0.062330053702


*** tstop() called on bp1-compute00066.data.bp.acrc.priv at Fri Oct 29 08:35:14 2021
Module time:
	user time   =      41.70 seconds =       0.70 minutes
	system time =       2.40 seconds =       0.04 minutes
	total time  =          5 seconds =       0.08 minutes
Total time:
	user time   =   14692.56 seconds =     244.88 minutes
	system time =     325.54 seconds =       5.43 minutes
	total time  =       2144 seconds =      35.73 minutes


  ==> Adding ECP gradient terms (computed numerically) <==

  -ECP Gradient:
     Atom            X                  Y                   Z
    ------   -----------------  -----------------  -----------------
       1       -0.000012635747     0.000000000000     0.000000000000
       2        0.000006317874     0.000000000000     0.062196210416
       3        0.000006317874     0.000000000000    -0.062196210416


  -Total Gradient:
     Atom            X                  Y                   Z
    ------   -----------------  -----------------  -----------------
       1        0.000001845590     0.000000000000     0.000000000000
       2       -0.000000858617     0.000000000000    -0.000133843286
       3       -0.000000858617     0.000000000000     0.000133843286


         ----------------------------------------------------------
                                   FINDIF
                     R. A. King and Jonathon Misiewicz
         ---------------------------------------------------------

  Computing second-derivative from gradients using projected, 
  symmetry-adapted, cartesian coordinates.

  6 gradients passed in, including the reference geometry.
  Generating complete list of displacements from unique ones.

    Operation 3 takes plus displacements of irrep B1u to minus ones.
    Operation 2 takes plus displacements of irrep B2u to minus ones.
    Operation 2 takes plus displacements of irrep B3u to minus ones.

-------------------------------------------------------------


  ==> Harmonic Vibrational Analysis <==

  non-mass-weighted Hessian:       Symmetric? True   Hermitian? True   Lin Dep Dim?  5 (0)
  projection of translations (True) and rotations (True) removed 5 degrees of freedom (5)
  total projector:                 Symmetric? True   Hermitian? True   Lin Dep Dim?  5 (5)
  mass-weighted Hessian:           Symmetric? True   Hermitian? True   Lin Dep Dim?  5 (0)
  pre-proj  low-frequency mode:    0.0000i [cm^-1]
  pre-proj  low-frequency mode:    0.0000i [cm^-1]
  pre-proj  low-frequency mode:    0.0000i [cm^-1]
  pre-proj  low-frequency mode:    0.0000i [cm^-1]
  pre-proj  low-frequency mode:    0.0000i [cm^-1]
  pre-proj  low-frequency mode:    0.0000  [cm^-1]
  pre-proj  low-frequency mode:    0.0000  [cm^-1]
  pre-proj  low-frequency mode:   87.2782  [cm^-1]
  pre-proj  all modes:['33.6036i' '33.5944i' '0.0000i' '0.0000i' '0.0000i' '0.0000' '0.0000'
 '87.2782' '145.0096']
  projected mass-weighted Hessian: Symmetric? True   Hermitian? True   Lin Dep Dim?  5 (5)
  post-proj low-frequency mode:   33.6036i [cm^-1] (V)
  post-proj low-frequency mode:   33.5944i [cm^-1] (V)
  post-proj low-frequency mode:    0.0000i [cm^-1] (TR)
  post-proj low-frequency mode:    0.0000  [cm^-1] (TR)
  post-proj low-frequency mode:    0.0000  [cm^-1] (TR)
  post-proj low-frequency mode:    0.0000  [cm^-1] (TR)
  post-proj low-frequency mode:    0.0000  [cm^-1] (TR)
  post-proj low-frequency mode:   87.2782  [cm^-1] (V)
  post-proj  all modes:['33.6036i' '33.5944i' '0.0000i' '0.0000' '0.0000' '0.0000' '0.0000'
 '87.2782' '145.0096']

  Vibration                       1                   2                   8           
  Freq [cm^-1]                 33.6036i            33.5944i            87.2782        
  Irrep                          B2u                 B3u                  Ag          
  Reduced mass [u]             106.9051            106.9051            106.9051       
  Force const [mDyne/A]        -0.0711             -0.0711              0.4798        
  Turning point v=0 [a0]        0.0000              0.0000              0.1136        
  RMS dev v=0 [a0 u^1/2]        0.0000              0.0000              0.8305        
  Char temp [K]                 0.0000              0.0000             125.5739       
  ----------------------------------------------------------------------------------
      1   AG               0.00  0.82 -0.00    0.82  0.00  0.00    0.00 -0.00  0.00   
      2   AG              -0.00 -0.41 -0.00   -0.41  0.00  0.00   -0.00 -0.00  0.71   
      3   AG               0.00 -0.41 -0.00   -0.41  0.00  0.00    0.00  0.00 -0.71   

  Vibration                       9           
  Freq [cm^-1]                 145.0096       
  Irrep                          B1u          
  Reduced mass [u]             106.9051       
  Force const [mDyne/A]         1.3245        
  Turning point v=0 [a0]        0.0881        
  RMS dev v=0 [a0 u^1/2]        0.6443        
  Char temp [K]                208.6365       
  ----------------------------------------------------------------------------------
      1   AG               0.00 -0.00  0.82   
      2   AG               0.00  0.00 -0.41   
      3   AG              -0.00  0.00 -0.41   

  ==> Thermochemistry Components <==

  Entropy, S
    Electronic S            0.000 [cal/(mol K)]        0.000 [J/(mol K)]       0.00000000 [mEh/K] (multiplicity = 1)
    Translational S        43.192 [cal/(mol K)]      180.714 [J/(mol K)]       0.06883047 [mEh/K] (mol. weight = 320.7153 [u], P = 101325.00 [Pa])
    Rotational S           20.278 [cal/(mol K)]       84.842 [J/(mol K)]       0.03231445 [mEh/K] (symmetry no. = 2)
    Vibrational S           6.457 [cal/(mol K)]       27.016 [J/(mol K)]       0.01028967 [mEh/K]
  Total S                  69.926 [cal/(mol K)]      292.571 [J/(mol K)]       0.11143458 [mEh/K]
  Correction S              0.000 [cal/(mol K)]        0.000 [J/(mol K)]       0.00000000 [mEh/K]

  Constant volume heat capacity, Cv
    Electronic Cv           0.000 [cal/(mol K)]        0.000 [J/(mol K)]       0.00000000 [mEh/K]
    Translational Cv        2.981 [cal/(mol K)]       12.472 [J/(mol K)]       0.00475022 [mEh/K]
    Rotational Cv           1.987 [cal/(mol K)]        8.314 [J/(mol K)]       0.00316681 [mEh/K]
    Vibrational Cv          3.866 [cal/(mol K)]       16.176 [J/(mol K)]       0.00616110 [mEh/K]
  Total Cv                  8.834 [cal/(mol K)]       36.962 [J/(mol K)]       0.01407812 [mEh/K]
  Correction Cv             0.000 [cal/(mol K)]        0.000 [J/(mol K)]       0.00000000 [mEh/K]

  Constant pressure heat capacity, Cp
    Electronic Cp           0.000 [cal/(mol K)]        0.000 [J/(mol K)]       0.00000000 [mEh/K]
    Translational Cp        4.968 [cal/(mol K)]       20.786 [J/(mol K)]       0.00791703 [mEh/K]
    Rotational Cp           1.987 [cal/(mol K)]        8.314 [J/(mol K)]       0.00316681 [mEh/K]
    Vibrational Cp          3.866 [cal/(mol K)]       16.176 [J/(mol K)]       0.00616110 [mEh/K]
  Total Cp                 10.821 [cal/(mol K)]       45.277 [J/(mol K)]       0.01724493 [mEh/K]
  Correction Cp             0.000 [cal/(mol K)]        0.000 [J/(mol K)]       0.00000000 [mEh/K]

  ==> Thermochemistry Energy Analysis <==

  Raw electronic energy, E0
  Total E0, Electronic energy at well bottom at 0 [K]                 -442.54467335 [Eh]

  Zero-point energy, ZPE_vib = Sum_i nu_i / 2
    Electronic ZPE          0.000 [kcal/mol]        0.000 [kJ/mol]       0.00000000 [Eh]
    Translational ZPE       0.000 [kcal/mol]        0.000 [kJ/mol]       0.00000000 [Eh]
    Rotational ZPE          0.000 [kcal/mol]        0.000 [kJ/mol]       0.00000000 [Eh]
    Vibrational ZPE         0.332 [kcal/mol]        1.389 [kJ/mol]       0.00052919 [Eh]         116.144 [cm^-1]
  Correction ZPE            0.332 [kcal/mol]        1.389 [kJ/mol]       0.00052919 [Eh]         116.144 [cm^-1]
  Total ZPE, Electronic energy at 0 [K]                               -442.54414416 [Eh]

  Thermal Energy, E (includes ZPE)
    Electronic E            0.000 [kcal/mol]        0.000 [kJ/mol]       0.00000000 [Eh]
    Translational E         0.889 [kcal/mol]        3.718 [kJ/mol]       0.00141628 [Eh]
    Rotational E            0.592 [kcal/mol]        2.479 [kJ/mol]       0.00094418 [Eh]
    Vibrational E           1.218 [kcal/mol]        5.095 [kJ/mol]       0.00194050 [Eh]
  Correction E              2.699 [kcal/mol]       11.292 [kJ/mol]       0.00430096 [Eh]
  Total E, Electronic energy at  298.15 [K]                           -442.54037238 [Eh]

  Enthalpy, H_trans = E_trans + k_B * T
    Electronic H            0.000 [kcal/mol]        0.000 [kJ/mol]       0.00000000 [Eh]
    Translational H         1.481 [kcal/mol]        6.197 [kJ/mol]       0.00236046 [Eh]
    Rotational H            0.592 [kcal/mol]        2.479 [kJ/mol]       0.00094418 [Eh]
    Vibrational H           1.218 [kcal/mol]        5.095 [kJ/mol]       0.00194050 [Eh]
  Correction H              3.291 [kcal/mol]       13.771 [kJ/mol]       0.00524515 [Eh]
  Total H, Enthalpy at  298.15 [K]                                    -442.53942820 [Eh]

  Gibbs free energy, G = H - T * S
    Electronic G            0.000 [kcal/mol]        0.000 [kJ/mol]       0.00000000 [Eh]
    Translational G       -11.396 [kcal/mol]      -47.683 [kJ/mol]      -0.01816134 [Eh]
    Rotational G           -5.453 [kcal/mol]      -22.817 [kJ/mol]      -0.00869037 [Eh]
    Vibrational G          -0.707 [kcal/mol]       -2.960 [kJ/mol]      -0.00112736 [Eh]
  Correction G            -17.557 [kcal/mol]      -73.459 [kJ/mol]      -0.02797907 [Eh]
  Total G, Free enthalpy at  298.15 [K]                               -442.57265242 [Eh]

    Psi4 stopped on: Friday, 29 October 2021 08:37AM
    Psi4 wall time for execution: 0:38:01.20

*** Psi4 exiting successfully. Buy a developer a beer!
