Too many bad steps.
Optimizer: Optimization complete!
 6 displacements needed.
 1 2 3 4 5 6
Warning: used thermodynamics relations inappropriate for low-frequency modes: ['107.5635' '153.8641' '313.4453']
At level 1: Red. Int., RFO, no backsteps, dynamic trust
At level 1: Red. Int., RFO, no backsteps, dynamic trust
At level 1: Red. Int., RFO, no backsteps, dynamic trust
At level 1: Red. Int., RFO, no backsteps, dynamic trust
At level 1: Red. Int., RFO, no backsteps, dynamic trust
At level 2: Red. Int., RFO, backsteps, smaller trust.
At level 2: Red. Int., RFO, backsteps, smaller trust.
At level 2: Red. Int., RFO, backsteps, smaller trust.
d C. D. Sherrill,
    J. Chem. Theory Comput. 13(7) pp 3185--3197 (2017).
    (doi: 10.1021/acs.jctc.7b00174)


                         Additional Contributions by
    P. Kraus, H. Kruse, M. H. Lechner, M. C. Schieber, R. A. Shaw,
    A. Alenaizan, R. Galvelis, Z. L. Glick, S. Lehtola, and J. P. Misiewicz

    -----------------------------------------------------------------------


    Psi4 started on: Friday, 29 October 2021 07:58AM

    Process ID: 129635
    Host:       bp1-compute00157.data.bp.acrc.priv
    PSIDATADIR: /work/zw18965/.conda/envs/p4env/share/psi4
    Memory:     500.0 MiB
    Threads:    24
    
  ==> Input File <==

--------------------------------------------------------------------------
memory 144 GB

molecule {
1 1
Ag       0.000000    1.529877    0.000000 
Ag       1.324912   -0.764938    0.000000 
Ag      -1.324912   -0.764938    0.000000 
 }

set dynamic_level 1
set basis Def2-TZVPPD

optimize("GAM")
frequencies("GAM")
--------------------------------------------------------------------------

  Memory set to 134.110 GiB by Python driver.
gradient() will perform analytic gradient computation.

*** tstart() called on bp1-compute00157.data.bp.acrc.priv
*** at Fri Oct 29 07:58:51 2021

   => Loading Basis Set <=

    Name: DEF2-TZVPPD
    Role: ORBITAL
    Keyword: BASIS
    atoms 1-3 entry AG         line  2174 (ECP: line  3646) file /work/zw18965/.conda/envs/p4env/share/psi4/basis/def2-tzvppd.gbs 

    !!!  WARNING: ECP capability is in beta. Please check occupations closely.  !!!


         ---------------------------------------------------------
                                   SCF
               by Justin Turney, Rob Parrish, Andy Simmonett
                          and Daniel G. A. Smith
                              RKS Reference
                       24 Threads, 137329 MiB Core
         ---------------------------------------------------------

  ==> Geometry <==

    Molecular point group: c2v
    Full point group: C2v

    Geometry (in Angstrom), charge = 1, multiplicity = 1:

       Center              X                  Y                   Z               Mass       
    ------------   -----------------  -----------------  -----------------  -----------------
         AG           0.000000000000    -0.000000000000     1.529876666667   106.905091600000
         AG           1.324912000000     0.000000000000    -0.764938333333   106.905091600000
         AG          -1.324912000000    -0.000000000000    -0.764938333333   106.905091600000

  Running in c2v symmetry.

  Rotational constants: A =      0.04492  B =      0.04492  C =      0.02246 [cm^-1]
  Rotational constants: A =   1346.52601  B =   1346.52589  C =    673.26298 [MHz]
  Nuclear repulsion =  216.278102475318605

  Charge       = 1
  Multiplicity = 1
  Electrons    = 56
  Nalpha       = 28
  Nbeta        = 28

  ==> Algorithm <==

  SCF Algorithm Type is DF.
  DIIS enabled.
  MOM disabled.
  Fractional occupation disabled.
  Guess Type is SAD.
  Energy threshold   = 1.00e-08
  Density threshold  = 1.00e-08
  Integral threshold = 0.00e+00

  ==> Primary Basis <==

  Basis Set: DEF2-TZVPPD
    Blend: DEF2-TZVPPD
    Number of shells: 48
    Number of basis function: 168
    Number of Cartesian functions: 213
    Spherical Harmonics?: true
    Max angular momentum: 4

  Core potential: DEF2-TZVPPD
    Number of shells: 12
    Number of ECP primitives: 42
    Number of ECP core electrons: 84
    Max angular momentum: 3

  ==> DFT Potential <==

   => Composite Functional: GAM <= 

   GAM GGA Minessota Exchange-Correlation Functional

    H.S. Yu, et al., Phys. Chem. Chem. Phys. 17, 12146, 2015


    Deriv               =              1
    GGA                 =           TRUE
    Meta                =          FALSE

    Exchange Hybrid     =          FALSE
    MP2 Hybrid          =          FALSE

   => Exchange Functionals <=

    1.0000     XC_GGA_X_GAM

   => Correlation Functionals <=

    1.0000     XC_GGA_C_GAM

   => Molecular Quadrature <=

    Radial Scheme          =       TREUTLER
    Pruning Scheme         =           FLAT
    Nuclear Scheme         =       TREUTLER

    BS radius alpha        =              1
    Pruning alpha          =              1
    Radial Points          =             75
    Spherical Points       =            302
    Total Points           =          67393
    Total Blocks           =            591
    Max Points             =            256
    Max Functions          =            166

   => Loading Basis Set <=

    Name: (DEF2-TZVPPD AUX)
    Role: JKFIT
    Keyword: DF_BASIS_SCF
    atoms 1-3 entry AG         line  4369 file /work/zw18965/.conda/envs/p4env/share/psi4/basis/def2-tzvpp-jkfit.gbs 

  ==> Pre-Iterations <==

   -------------------------------------------------------
    Irrep   Nso     Nmo     Nalpha   Nbeta   Ndocc  Nsocc
   -------------------------------------------------------
     A1        59      59       0       0       0       0
     A2        27      27       0       0       0       0
     B1        49      49       0       0       0       0
     B2        33      33       0       0       0       0
   -------------------------------------------------------
    Total     168     168      28      28      28       0
   -------------------------------------------------------

  ==> Integral Setup <==

  DFHelper Memory: AOs need 0.177 GiB; user supplied 100.343 GiB. Using in-core AOs.

  ==> MemDFJK: Density-Fitted J/K Matrices <==

    J tasked:                   Yes
    K tasked:                    No
    wK tasked:                   No
    OpenMP threads:              24
    Memory [MiB]:            102751
    Algorithm:                 Core
    Schwarz Cutoff:           1E-12
    Mask sparsity (%):       1.2188
    Fitting Condition:        1E-10

   => Auxiliary Basis Set <=

  Basis Set: (DEF2-TZVPPD AUX)
    Blend: DEF2-TZVPP-JKFIT
    Number of shells: 147
    Number of basis function: 765
    Number of Cartesian functions: 1152
    Spherical Harmonics?: true
    Max angular momentum: 6

  Cached 100.0% of DFT collocation blocks in 0.240 [GiB].

  Minimum eigenvalue in the overlap matrix is 2.8944547741E-03.
  Using Symmetric Orthogonalization.

  SCF Guess: Superposition of Atomic Densities via on-the-fly atomic UHF.

  ==> Iterations <==

                           Total Energy        Delta E     RMS |[F,P]|

   @DF-RKS iter SAD:  -442.21076593502153   -4.42211e+02   0.00000e+00 
   @DF-RKS iter   1:  -442.52990327789428   -3.19137e-01   4.61279e-03 DIIS
   @DF-RKS iter   2:  -442.43734360198391    9.25597e-02   7.79682e-03 DIIS
   @DF-RKS iter   3:  -442.58026233156716   -1.42919e-01   4.57893e-04 DIIS
   @DF-RKS iter   4:  -442.58067085942548   -4.08528e-04   2.24355e-04 DIIS
   @DF-RKS iter   5:  -442.58077226395699   -1.01405e-04   7.52209e-05 DIIS
   @DF-RKS iter   6:  -442.58078884711324   -1.65832e-05   1.54269e-05 DIIS
   @DF-RKS iter   7:  -442.58078958433543   -7.37222e-07   3.49332e-06 DIIS
   @DF-RKS iter   8:  -442.58078961929982   -3.49644e-08   5.38842e-07 DIIS
   @DF-RKS iter   9:  -442.58078962021114   -9.11314e-10   1.06908e-07 DIIS
   @DF-RKS iter  10:  -442.58078962024331   -3.21734e-11   1.38097e-08 DIIS
   @DF-RKS iter  11:  -442.58078962024388   -5.68434e-13   7.54193e-09 DIIS
  Energy and wave function converged.


  ==> Post-Iterations <==

    Orbital Energies [Eh]
    ---------------------

    Doubly Occupied:                                                      

       1A1    -3.779050     2A1    -3.778581     1B1    -3.778577  
       3A1    -2.414059     2B1    -2.411207     4A1    -2.411202  
       3B1    -2.408641     5A1    -2.408635     4B1    -2.408369  
       1B2    -2.407011     2B2    -2.406506     1A2    -2.406501  
       6A1    -0.521586     5B1    -0.504042     7A1    -0.504037  
       3B2    -0.498319     8A1    -0.485182     2A2    -0.481703  
       4B2    -0.481687     6B1    -0.464801     9A1    -0.464800  
       3A2    -0.460962     4A2    -0.459146     5B2    -0.459116  
      10A1    -0.458185     7B1    -0.458169     8B1    -0.444741  
      11A1    -0.403480  

    Virtual:                                                              

      12A1    -0.290952     9B1    -0.290951     6B2    -0.216782  
      13A1    -0.181431    10B1    -0.172489    14A1    -0.172486  
       7B2    -0.124300     5A2    -0.124298    11B1    -0.053989  
      15A1    -0.048482    12B1    -0.047066    16A1    -0.047064  
       8B2     0.015094    17A1     0.015542    18A1     0.024169  
      13B1     0.024169    14B1     0.037332    19A1     0.037336  
       9B2     0.071199     6A2     0.071203    15B1     0.129307  
      20A1     0.154167    16B1     0.172035    21A1     0.172055  
       7A2     0.189531    10B2     0.189532    11B2     0.202609  
      17B1     0.291246    22A1     0.291248     8A2     0.330578  
      23A1     0.356103     9A2     0.388734    12B2     0.388734  
      24A1     0.396043    18B1     0.396045    19B1     0.478608  
      25A1     0.478654    20B1     0.527156    21B1     1.223993  
      26A1     1.223994    27A1     1.259070    28A1     1.267638  
      13B2     1.296524    10A2     1.297843    14B2     1.297892  
      22B1     1.323687    29A1     1.323695    15B2     1.326324  
      16B2     1.340096    11A2     1.340118    23B1     1.341542  
      12A2     1.352061    17B2     1.352095    24B1     1.369228  
      30A1     1.369237    18B2     1.382689    25B1     1.386993  
      31A1     1.387035    13A2     1.389212    26B1     1.437640  
      32A1     1.439016    27B1     1.439039    33A1     1.469542  
      14A2     1.478294    19B2     1.478322    28B1     1.510701  
      34A1     1.510710    29B1     1.652112    35A1     1.698964  
      36A1     1.785072    15A2     1.794982    20B2     1.795007  
      30B1     1.827406    37A1     1.827449    21B2     1.831536  
      16A2     1.843464    38A1     1.856235    31B1     1.856293  
      17A2     1.871412    22B2     1.871512    32B1     1.969149  
      39A1     1.969159    33B1     1.995534    40A1     2.108700  
      34B1     2.273421    41A1     2.273431    42A1     4.415734  
      35B1     4.433204    43A1     4.433272    23B2     4.443483  
      18A2     4.445866    24B2     4.445968    44A1     4.454130  
      25B2     4.470069    36B1     4.474153    45A1     4.474202  
      26B2     4.482599    19A2     4.482691    37B1     4.488008  
      20A2     4.530905    46A1     4.553299    38B1     4.553368  
      21A2     4.555433    27B2     4.555648    39B1     4.716500  
      47A1     4.716505    40B1     4.732608    48A1     5.218141  
      41B1     5.219182    49A1     5.219270    22A2     5.219481  
      28B2     5.219764    42B1     5.220246    29B2     5.220250  
      50A1     5.220433    30B2     5.220643    23A2     5.220718  
      24A2     5.221211    43B1     5.221216    51A1     5.221642  
      31B2     5.222072    52A1     5.222103    44B1     5.222770  
      32B2     5.223169    53A1     5.223692    54A1     5.223727  
      25A2     5.223730    45B1     5.223828    26A2     5.224007  
      27A2     5.224111    33B2     5.224505    46B1     5.226014  
      47B1     5.233598    55A1     5.233748    56A1    33.143838  
      48B1    33.482205    57A1    33.482205    58A1   110.582890  
      49B1   110.690377    59A1   110.690380  

    Final Occupation by Irrep:
             A1    A2    B1    B2 
    DOCC [    11,    4,    8,    5 ]

  @DF-RKS Final Energy:  -442.58078962024388

   => Energetics <=

    Nuclear Repulsion Energy =            216.2781024753186045
    One-Electron Energy =               -1206.1550403136754994
    Two-Electron Energy =                 591.6254640180632123
    DFT Exchange-Correlation Energy =     -44.3293157999502583
    Empirical Dispersion Energy =           0.0000000000000000
    VV10 Nonlocal Energy =                  0.0000000000000000
    Total Energy =                       -442.5807896202439338

Computation Completed


Properties will be evaluated at   0.000000,   0.000000,   0.000000 [a0]

Properties computed using the SCF density matrix

  Nuclear Dipole Moment: [e a0]
     X:     0.0000      Y:     0.0000      Z:    -0.0000

  Electronic Dipole Moment: [e a0]
     X:     0.0000      Y:     0.0000      Z:     0.0001

  Dipole Moment: [e a0]
     X:     0.0000      Y:     0.0000      Z:     0.0001     Total:     0.0001

  Dipole Moment: [D]
     X:     0.0000      Y:     0.0000      Z:     0.0003     Total:     0.0003


*** tstop() called on bp1-compute00157.data.bp.acrc.priv at Fri Oct 29 07:58:58 2021
Module time:
	user time   =      69.11 seconds =       1.15 minutes
	system time =       2.95 seconds =       0.05 minutes
	total time  =          7 seconds =       0.12 minutes
Total time:
	user time   =      69.11 seconds =       1.15 minutes
	system time =       2.95 seconds =       0.05 minutes
	total time  =          7 seconds =       0.12 minutes

*** tstart() called on bp1-compute00157.data.bp.acrc.priv
*** at Fri Oct 29 07:58:58 2021


         ------------------------------------------------------------
                                   SCF GRAD                          
                          Rob Parrish, Justin Turney,                
                       Andy Simmonett, and Alex Sokolov              
         ------------------------------------------------------------

  ==> Geometry <==

    Molecular point group: c2v
    Full point group: C2v

    Geometry (in Angstrom), charge = 1, multiplicity = 1:

       Center              X                  Y                   Z               Mass       
    ------------   -----------------  -----------------  -----------------  -----------------
         AG           0.000000000000    -0.000000000000     1.529876666667   106.905091600000
         AG           1.324912000000     0.000000000000    -0.764938333333   106.905091600000
         AG          -1.324912000000    -0.000000000000    -0.764938333333   106.905091600000

  Nuclear repulsion =  216.278102475318605

  ==> Basis Set <==

  Basis Set: DEF2-TZVPPD
    Blend: DEF2-TZVPPD
    Number of shells: 48
    Number of basis function: 168
    Number of Cartesian functions: 213
    Spherical Harmonics?: true
    Max angular momentum: 4

  Core potential: DEF2-TZVPPD
    Number of shells: 12
    Number of ECP primitives: 42
    Number of ECP core electrons: 84
    Max angular momentum: 3

  ==> DFJKGrad: Density-Fitted SCF Gradients <==

    Gradient:                    1
    J tasked:                  Yes
    K tasked:                   No
    wK tasked:                  No
    OpenMP threads:             24
    Integrals threads:          24
    Memory [MiB]:           102996
    Schwarz Cutoff:          0E+00
    Fitting Condition:       1E-10

   => Auxiliary Basis Set <=

  Basis Set: (DEF2-TZVPPD AUX)
    Blend: DEF2-TZVPP-JKFIT
    Number of shells: 147
    Number of basis function: 765
    Number of Cartesian functions: 1152
    Spherical Harmonics?: true
    Max angular momentum: 6

  ==> DFT Potential <==

   => Composite Functional: GAM <= 

   GAM GGA Minessota Exchange-Correlation Functional

    H.S. Yu, et al., Phys. Chem. Chem. Phys. 17, 12146, 2015


    Deriv               =              1
    GGA                 =           TRUE
    Meta                =          FALSE

    Exchange Hybrid     =          FALSE
    MP2 Hybrid          =          FALSE

   => Exchange Functionals <=

    1.0000     XC_GGA_X_GAM

   => Correlation Functionals <=

    1.0000     XC_GGA_C_GAM

   => Molecular Quadrature <=

    Radial Scheme          =       TREUTLER
    Pruning Scheme         =           FLAT
    Nuclear Scheme         =       TREUTLER

    BS radius alpha        =              1
    Pruning alpha          =              1
    Radial Points          =             75
    Spherical Points       =            302
    Total Points           =          67393
    Total Blocks           =            591
    Max Points             =            256
    Max Functions          =            166


  -Total Gradient:
     Atom            X                  Y                   Z
    ------   -----------------  -----------------  -----------------
       1        0.000000000000    -0.000000000000    -0.147491583595
       2       -0.127495175893    -0.000000000000     0.073794273023
       3        0.127495175893     0.000000000000     0.073794273023


*** tstop() called on bp1-compute00157.data.bp.acrc.priv at Fri Oct 29 07:59:03 2021
Module time:
	user time   =      41.36 seconds =       0.69 minutes
	system time =       2.86 seconds =       0.05 minutes
	total time  =          5 seconds =       0.08 minutes
Total time:
	user time   =     110.50 seconds =       1.84 minutes
	system time =       5.82 seconds =       0.10 minutes
	total time  =         12 seconds =       0.20 minutes


  ==> Adding ECP gradient terms (computed numerically) <==

  -ECP Gradient:
     Atom            X                  Y                   Z
    ------   -----------------  -----------------  -----------------
       1        0.000000000000    -0.000000000000     0.131617163627
       2        0.114003298783     0.000000000000    -0.065808582044
       3       -0.114003298783    -0.000000000000    -0.065808582044


  -Total Gradient:
     Atom            X                  Y                   Z
    ------   -----------------  -----------------  -----------------
       1        0.000000000000    -0.000000000000    -0.015874419968
       2       -0.013491877110    -0.000000000000     0.007985690979
       3        0.013491877110     0.000000000000     0.007985690979


			-----------------------------------------
			 OPTKING 2.0: for geometry optimizations 
			  - R.A. King,  Bethel University        
			-----------------------------------------
	At level 1: Red. Int., RFO, no backsteps, dynamic trust

	Internal coordinates to be generated automatically.
	Detected frag 1 with atoms:  1 2 3
	---Fragment 1 Bond Connectivity---
	 1 : 2 3
	 2 : 1 3
	 3 : 1 2

	---Fragment 1 Geometry and Gradient---
	 AG          0.0000000000       -0.0000000000        2.8910479057
	 AG          2.5037208203        0.0000000000       -1.4455239529
	 AG         -2.5037208203       -0.0000000000       -1.4455239529
	             0.0000000000       -0.0000000000       -0.0158744200
	            -0.0134918771       -0.0000000000        0.0079856910
	             0.0134918771        0.0000000000        0.0079856910

	Previous optimization step data not found.  Starting new optimization.

	---Fragment 1 Intrafragment Coordinates---
	 - Coordinate -           - BOHR/RAD -       - ANG/DEG -
	 R(1,2)           =         5.007442	       2.649824
	 R(1,3)           =         5.007442	       2.649824
	 R(2,3)           =         5.007442	       2.649824
	 B(1,2,3)         =         1.047198	      60.000001
	 B(1,3,2)         =         1.047198	      60.000001
	 B(2,1,3)         =         1.047198	      59.999998

	Current energy   :      -442.5807896202

	Generating empirical Hessian (Schlegel '84) for each fragment.
	Taking RFO optimization step.
	Going to follow RFO solution 1.
	Using RFO vector 1.
	Norm of target step-size    0.21949
	Projected energy change by RFO approximation:        -0.0033297146

	Back-transformation to cartesian coordinates...
	Successfully converged to displaced geometry.

	--- Internal Coordinate Step in ANG or DEG, aJ/ANG or AJ/DEG ---
	 ---------------------------------------------------------------------------
	   Coordinate                Previous        Force       Change         New 
	   ----------                --------       ------       ------       ------
	    1 R(1,2)          =      2.649824     0.075579     0.067546     2.717370
	    2 R(1,3)          =      2.649824     0.075579     0.067546     2.717370
	    3 R(2,3)          =      2.649824     0.073491     0.066071     2.715895
	    4 B(1,2,3)        =     60.000001     0.000002     0.017957    60.017958
	    5 B(1,3,2)        =     60.000001     0.000002     0.017957    60.017958
	    6 B(2,1,3)        =     59.999998    -0.000004    -0.035914    59.964084
	 ---------------------------------------------------------------------------
	Successfully symmetrized geometry.

  ==> Convergence Check <==

  Measures of convergence in internal coordinates in au.
  Criteria marked as inactive (o), active & met (*), and active & unmet ( ).
  --------------------------------------------------------------------------------------------- ~
   Step     Total Energy     Delta E     MAX Force     RMS Force      MAX Disp      RMS Disp    ~
  --------------------------------------------------------------------------------------------- ~
    Convergence Criteria    1.00e-06 *    3.00e-04 *             o    1.20e-03 *             o  ~
  --------------------------------------------------------------------------------------------- ~
      1    -442.58078962   -4.43e+02      9.17e-03      6.43e-03 o    1.28e-01      8.96e-02 o  ~
  ---------------------------------------------------------------------------------------------

	Writing optimization data to binary file.
	Structure for next step:
	Cartesian Geometry (in Angstrom)
	   AG     0.0000000000   0.0000000000   1.5691582471
	   AG     1.3579474388   0.0000000000  -0.7845791236
	   AG    -1.3579474388  -0.0000000000  -0.7845791236
			--------------------------
			 OPTKING Finished Execution 
			--------------------------

    Structure for next step:
    Molecular point group: c2v
    Full point group: C2v

    Geometry (in Angstrom), charge = 1, multiplicity = 1:

    AG           0.000000000000    -0.000000000000     1.569158253315
    AG           1.357947444172     0.000000000000    -0.784579126657
    AG          -1.357947444172    -0.000000000000    -0.784579126657

gradient() will perform analytic gradient computation.

*** tstart() called on bp1-compute00157.data.bp.acrc.priv
*** at Fri Oct 29 08:01:17 2021

   => Loading Basis Set <=

    Name: DEF2-TZVPPD
    Role: ORBITAL
    Keyword: BASIS
    atoms 1-3 entry AG         line  2174 (ECP: line  3646) file /work/zw18965/.conda/envs/p4env/share/psi4/basis/def2-tzvppd.gbs 

    !!!  WARNING: ECP capability is in beta. Please check occupations closely.  !!!


         ---------------------------------------------------------
                                   SCF
               by Justin Turney, Rob Parrish, Andy Simmonett
                          and Daniel G. A. Smith
                              RKS Reference
                       24 Threads, 137329 MiB Core
         ---------------------------------------------------------

  ==> Geometry <==

    Molecular point group: c2v
    Full point group: C2v

    Geometry (in Angstrom), charge = 1, multiplicity = 1:

       Center              X                  Y                   Z               Mass       
    ------------   -----------------  -----------------  -----------------  -----------------
         AG           0.000000000000    -0.000000000000     1.569158253315   106.905091600000
         AG           1.357947444172     0.000000000000    -0.784579126657   106.905091600000
         AG          -1.357947444172    -0.000000000000    -0.784579126657   106.905091600000

  Running in c2v symmetry.

  Rotational constants: A =      0.04276  B =      0.04269  C =      0.02136 [cm^-1]
  Rotational constants: A =   1281.80774  B =   1279.95311  C =    640.43988 [MHz]
  Nuclear repulsion =  210.940227442008336

  Charge       = 1
  Multiplicity = 1
  Electrons    = 56
  Nalpha       = 28
  Nbeta        = 28

  ==> Algorithm <==

  SCF Algorithm Type is DF.
  DIIS enabled.
  MOM disabled.
  Fractional occupation disabled.
  Guess Type is READ.
  Energy threshold   = 1.00e-08
  Density threshold  = 1.00e-08
  Integral threshold = 0.00e+00

  ==> Primary Basis <==

  Basis Set: DEF2-TZVPPD
    Blend: DEF2-TZVPPD
    Number of shells: 48
    Number of basis function: 168
    Number of Cartesian functions: 213
    Spherical Harmonics?: true
    Max angular momentum: 4

  Core potential: DEF2-TZVPPD
    Number of shells: 12
    Number of ECP primitives: 42
    Number of ECP core electrons: 84
    Max angular momentum: 3

  ==> DFT Potential <==

   => Composite Functional: GAM <= 

   GAM GGA Minessota Exchange-Correlation Functional

    H.S. Yu, et al., Phys. Chem. Chem. Phys. 17, 12146, 2015


    Deriv               =              1
    GGA                 =           TRUE
    Meta                =          FALSE

    Exchange Hybrid     =          FALSE
    MP2 Hybrid          =          FALSE

   => Exchange Functionals <=

    1.0000     XC_GGA_X_GAM

   => Correlation Functionals <=

    1.0000     XC_GGA_C_GAM

   => Molecular Quadrature <=

    Radial Scheme          =       TREUTLER
    Pruning Scheme         =           FLAT
    Nuclear Scheme         =       TREUTLER

    BS radius alpha        =              1
    Pruning alpha          =              1
    Radial Points          =             75
    Spherical Points       =            302
    Total Points           =          67397
    Total Blocks           =            589
    Max Points             =            256
    Max Functions          =            165

   => Loading Basis Set <=

    Name: (DEF2-TZVPPD AUX)
    Role: JKFIT
    Keyword: DF_BASIS_SCF
    atoms 1-3 entry AG         line  4369 file /work/zw18965/.conda/envs/p4env/share/psi4/basis/def2-tzvpp-jkfit.gbs 

   => Loading Basis Set <=

    Name: DEF2-TZVPPD
    Role: ORBITAL
    Keyword: BASIS
    atoms 1-3 entry AG         line  2174 (ECP: line  3646) file /work/zw18965/.conda/envs/p4env/share/psi4/basis/def2-tzvppd.gbs 

    !!!  WARNING: ECP capability is in beta. Please check occupations closely.  !!!

  Reading orbitals from file 180, no projection.

  ==> Pre-Iterations <==

   -------------------------------------------------------
    Irrep   Nso     Nmo     Nalpha   Nbeta   Ndocc  Nsocc
   -------------------------------------------------------
     A1        59      59       0       0       0       0
     A2        27      27       0       0       0       0
     B1        49      49       0       0       0       0
     B2        33      33       0       0       0       0
   -------------------------------------------------------
    Total     168     168      28      28      28       0
   -------------------------------------------------------

  ==> Integral Setup <==

  DFHelper Memory: AOs need 0.176 GiB; user supplied 100.347 GiB. Using in-core AOs.

  ==> MemDFJK: Density-Fitted J/K Matrices <==

    J tasked:                   Yes
    K tasked:                    No
    wK tasked:                   No
    OpenMP threads:              24
    Memory [MiB]:            102755
    Algorithm:                 Core
    Schwarz Cutoff:           1E-12
    Mask sparsity (%):       1.6086
    Fitting Condition:        1E-10

   => Auxiliary Basis Set <=

  Basis Set: (DEF2-TZVPPD AUX)
    Blend: DEF2-TZVPP-JKFIT
    Number of shells: 147
    Number of basis function: 765
    Number of Cartesian functions: 1152
    Spherical Harmonics?: true
    Max angular momentum: 6

  Cached 100.0% of DFT collocation blocks in 0.235 [GiB].

  Minimum eigenvalue in the overlap matrix is 3.2941137901E-03.
  Using Symmetric Orthogonalization.

  SCF Guess: Orbitals guess was supplied from a previous computation.

  ==> Iterations <==

                           Total Energy        Delta E     RMS |[F,P]|

   @DF-RKS iter   0:  -442.56883840438320   -4.42569e+02   1.56734e-03 
   @DF-RKS iter   1:  -442.58291704482440   -1.40786e-02   8.48389e-05 DIIS
   @DF-RKS iter   2:  -442.58288945650884    2.75883e-05   1.55103e-04 DIIS
   @DF-RKS iter   3:  -442.58295150490858   -6.20484e-05   1.64888e-05 DIIS
   @DF-RKS iter   4:  -442.58295242037070   -9.15462e-07   6.66658e-06 DIIS
   @DF-RKS iter   5:  -442.58295251939785   -9.90271e-08   1.87046e-06 DIIS
   @DF-RKS iter   6:  -442.58295252615710   -6.75925e-09   4.42216e-07 DIIS
   @DF-RKS iter   7:  -442.58295252670507   -5.47971e-10   1.65656e-07 DIIS
   @DF-RKS iter   8:  -442.58295252679659   -9.15179e-11   7.62494e-09 DIIS
  Energy and wave function converged.


  ==> Post-Iterations <==

    Orbital Energies [Eh]
    ---------------------

    Doubly Occupied:                                                      

       1A1    -3.776214     2A1    -3.775884     1B1    -3.775883  
       3A1    -2.410254     4A1    -2.408090     2B1    -2.408083  
       3B1    -2.406149     5A1    -2.406145     4B1    -2.405934  
       1B2    -2.404461     2B2    -2.404091     1A2    -2.404085  
       6A1    -0.513057     7A1    -0.497891     5B1    -0.497816  
       3B2    -0.492252     8A1    -0.480992     4B2    -0.477953  
       2A2    -0.477932     9A1    -0.463322     6B1    -0.463285  
       3A2    -0.460016     4A2    -0.458254     5B2    -0.458247  
      10A1    -0.457240     7B1    -0.457191     8B1    -0.445548  
      11A1    -0.399822  

    Virtual:                                                              

      12A1    -0.291227     9B1    -0.291165     6B2    -0.214584  
      13A1    -0.181930    14A1    -0.173219    10B1    -0.173202  
       7B2    -0.125400     5A2    -0.125338    11B1    -0.056958  
      15A1    -0.049039    12B1    -0.048993    16A1    -0.048120  
      17A1     0.015504     8B2     0.017012    18A1     0.024470  
      13B1     0.024484    19A1     0.037320    14B1     0.037334  
       9B2     0.070875     6A2     0.070923    15B1     0.125199  
      20A1     0.151661    21A1     0.162139    16B1     0.162284  
       7A2     0.187603    10B2     0.187612    11B2     0.196358  
      22A1     0.288205    17B1     0.288226     8A2     0.327862  
      23A1     0.352953    12B2     0.386780     9A2     0.386844  
      18B1     0.390940    24A1     0.390976    25A1     0.477333  
      19B1     0.477335    20B1     0.522617    26A1     1.251538  
      21B1     1.252040    27A1     1.282927    28A1     1.288068  
      13B2     1.306918    14B2     1.307661    10A2     1.307728  
      29A1     1.326024    22B1     1.326087    15B2     1.330995  
      16B2     1.340857    11A2     1.340926    23B1     1.341387  
      17B2     1.346940    12A2     1.347032    30A1     1.360076  
      24B1     1.360199    13A2     1.378481    31A1     1.379864  
      25B1     1.380044    18B2     1.384131    26B1     1.421626  
      32A1     1.429337    27B1     1.429408    19B2     1.470638  
      14A2     1.470744    33A1     1.476284    28B1     1.499217  
      34A1     1.499237    29B1     1.645855    35A1     1.684226  
      36A1     1.790999    15A2     1.799562    20B2     1.799595  
      37A1     1.830241    30B1     1.830259    21B2     1.840738  
      16A2     1.842362    17A2     1.869466    22B2     1.869505  
      38A1     1.873929    31B1     1.874275    39A1     1.943072  
      32B1     1.943479    33B1     1.961613    40A1     2.106887  
      34B1     2.254088    41A1     2.254131    42A1     4.434857  
      43A1     4.440531    35B1     4.440592    23B2     4.456497  
      18A2     4.456713    24B2     4.456786    44A1     4.459293  
      25B2     4.474712    45A1     4.477733    36B1     4.477737  
      26B2     4.483513    19A2     4.483637    37B1     4.487532  
      20A2     4.521021    46A1     4.540090    38B1     4.540459  
      27B2     4.542973    21A2     4.543017    47A1     4.689911  
      39B1     4.690269    40B1     4.699162    48A1     5.221237  
      41B1     5.221892    49A1     5.222049    22A2     5.222328  
      42B1     5.222342    28B2     5.222613    29B2     5.222886  
      50A1     5.223068    23A2     5.223355    30B2     5.223552  
      43B1     5.223957    24A2     5.223957    51A1     5.224098  
      52A1     5.224393    31B2     5.224764    44B1     5.224976  
      32B2     5.225471    53A1     5.225938    54A1     5.225975  
      25A2     5.226001    45B1     5.226027    26A2     5.226188  
      27A2     5.226257    33B2     5.226705    46B1     5.227105  
      47B1     5.233841    55A1     5.233998    56A1    33.119927  
      57A1    33.451346    48B1    33.451444    58A1   110.577300  
      59A1   110.682395    49B1   110.682420  

    Final Occupation by Irrep:
             A1    A2    B1    B2 
    DOCC [    11,    4,    8,    5 ]

  @DF-RKS Final Energy:  -442.58295252679659

   => Energetics <=

    Nuclear Repulsion Energy =            210.9402274420083359
    One-Electron Energy =               -1195.6543780668716863
    Two-Electron Energy =                 586.4495645805869799
    DFT Exchange-Correlation Energy =     -44.3183664825201973
    Empirical Dispersion Energy =           0.0000000000000000
    VV10 Nonlocal Energy =                  0.0000000000000000
    Total Energy =                       -442.5829525267965892

Computation Completed


Properties will be evaluated at   0.000000,   0.000000,   0.000000 [a0]

Properties computed using the SCF density matrix

  Nuclear Dipole Moment: [e a0]
     X:    -0.0000      Y:     0.0000      Z:    -0.0000

  Electronic Dipole Moment: [e a0]
     X:     0.0000      Y:     0.0000      Z:     0.0008

  Dipole Moment: [e a0]
     X:    -0.0000      Y:     0.0000      Z:     0.0008     Total:     0.0008

  Dipole Moment: [D]
     X:    -0.0000      Y:     0.0000      Z:     0.0020     Total:     0.0020


*** tstop() called on bp1-compute00157.data.bp.acrc.priv at Fri Oct 29 08:01:22 2021
Module time:
	user time   =      54.78 seconds =       0.91 minutes
	system time =       1.99 seconds =       0.03 minutes
	total time  =          5 seconds =       0.08 minutes
Total time:
	user time   =    1029.99 seconds =      17.17 minutes
	system time =      26.20 seconds =       0.44 minutes
	total time  =        151 seconds =       2.52 minutes

*** tstart() called on bp1-compute00157.data.bp.acrc.priv
*** at Fri Oct 29 08:01:22 2021


         ------------------------------------------------------------
                                   SCF GRAD                          
                          Rob Parrish, Justin Turney,                
                       Andy Simmonett, and Alex Sokolov              
         ------------------------------------------------------------

  ==> Geometry <==

    Molecular point group: c2v
    Full point group: C2v

    Geometry (in Angstrom), charge = 1, multiplicity = 1:

       Center              X                  Y                   Z               Mass       
    ------------   -----------------  -----------------  -----------------  -----------------
         AG           0.000000000000    -0.000000000000     1.569158253315   106.905091600000
         AG           1.357947444172     0.000000000000    -0.784579126657   106.905091600000
         AG          -1.357947444172    -0.000000000000    -0.784579126657   106.905091600000

  Nuclear repulsion =  210.940227442008336

  ==> Basis Set <==

  Basis Set: DEF2-TZVPPD
    Blend: DEF2-TZVPPD
    Number of shells: 48
    Number of basis function: 168
    Number of Cartesian functions: 213
    Spherical Harmonics?: true
    Max angular momentum: 4

  Core potential: DEF2-TZVPPD
    Number of shells: 12
    Number of ECP primitives: 42
    Number of ECP core electrons: 84
    Max angular momentum: 3

  ==> DFJKGrad: Density-Fitted SCF Gradients <==

    Gradient:                    1
    J tasked:                  Yes
    K tasked:                   No
    wK tasked:                  No
    OpenMP threads:             24
    Integrals threads:          24
    Memory [MiB]:           102996
    Schwarz Cutoff:          0E+00
    Fitting Condition:       1E-10

   => Auxiliary Basis Set <=

  Basis Set: (DEF2-TZVPPD AUX)
    Blend: DEF2-TZVPP-JKFIT
    Number of shells: 147
    Number of basis function: 765
    Number of Cartesian functions: 1152
    Spherical Harmonics?: true
    Max angular momentum: 6

  ==> DFT Potential <==

   => Composite Functional: GAM <= 

   GAM GGA Minessota Exchange-Correlation Functional

    H.S. Yu, et al., Phys. Chem. Chem. Phys. 17, 12146, 2015


    Deriv               =              1
    GGA                 =           TRUE
    Meta                =          FALSE

    Exchange Hybrid     =          FALSE
    MP2 Hybrid          =          FALSE

   => Exchange Functionals <=

    1.0000     XC_GGA_X_GAM

   => Correlation Functionals <=

    1.0000     XC_GGA_C_GAM

   => Molecular Quadrature <=

    Radial Scheme          =       TREUTLER
    Pruning Scheme         =           FLAT
    Nuclear Scheme         =       TREUTLER

    BS radius alpha        =              1
    Pruning alpha          =              1
    Radial Points          =             75
    Spherical Points       =            302
    Total Points           =          67397
    Total Blocks           =            589
    Max Points             =            256
    Max Functions          =            165


  -Total Gradient:
     Atom            X                  Y                   Z
    ------   -----------------  -----------------  -----------------
       1        0.000000000000    -0.000000000000    -0.122341514459
       2       -0.105928647434    -0.000000000000     0.061203620299
       3        0.105928647434     0.000000000000     0.061203620299


*** tstop() called on bp1-compute00157.data.bp.acrc.priv at Fri Oct 29 08:01:27 2021
Module time:
	user time   =      40.45 seconds =       0.67 minutes
	system time =       2.72 seconds =       0.05 minutes
	total time  =          5 seconds =       0.08 minutes
Total time:
	user time   =    1070.47 seconds =      17.84 minutes
	system time =      28.92 seconds =       0.48 minutes
	total time  =        156 seconds =       2.60 minutes


  ==> Adding ECP gradient terms (computed numerically) <==

  -ECP Gradient:
     Atom            X                  Y                   Z
    ------   -----------------  -----------------  -----------------
       1        0.000000000000     0.000000000000     0.116407694009
       2        0.100991847489     0.000000000000    -0.058203847040
       3       -0.100991847489    -0.000000000000    -0.058203847040


  -Total Gradient:
     Atom            X                  Y                   Z
    ------   -----------------  -----------------  -----------------
       1        0.000000000000    -0.000000000000    -0.005933820450
       2       -0.004936799945    -0.000000000000     0.002999773259
       3        0.004936799945     0.000000000000     0.002999773259


			-----------------------------------------
			 OPTKING 2.0: for geometry optimizations 
			  - R.A. King,  Bethel University        
			-----------------------------------------
	At level 1: Red. Int., RFO, no backsteps, dynamic trust

	Previous internal coordinate definitions found.
	---Fragment 1 Geometry and Gradient---
	 AG          0.0000000000       -0.0000000000        2.9652793463
	 AG          2.5661487623        0.0000000000       -1.4826396731
	 AG         -2.5661487623       -0.0000000000       -1.4826396731
	             0.0000000000       -0.0000000000       -0.0059338205
	            -0.0049367999       -0.0000000000        0.0029997733
	             0.0049367999        0.0000000000        0.0029997733

	---Fragment 1 Intrafragment Coordinates---
	 - Coordinate -           - BOHR/RAD -       - ANG/DEG -
	 R(1,2)           =         5.135085	       2.717370
	 R(1,3)           =         5.135085	       2.717370
	 R(2,3)           =         5.132298	       2.715895
	 B(1,2,3)         =         1.047511	      60.017958
	 B(1,3,2)         =         1.047511	      60.017958
	 B(2,1,3)         =         1.046571	      59.964084

	Current energy   :      -442.5829525268

	Energy change for the previous step:
		Projected    :        -0.0033297146
		Actual       :        -0.0021629066

	Performing BFGS update.
	Previous computed or guess Hessian on step 1.
	Steps to be used in Hessian update: 1
	Taking RFO optimization step.
	Going to follow RFO solution 1.
	Using RFO vector 1.
	Norm of target step-size    0.12699
	Projected energy change by RFO approximation:        -0.0007528027

	Back-transformation to cartesian coordinates...
	Successfully converged to displaced geometry.

	--- Internal Coordinate Step in ANG or DEG, aJ/ANG or AJ/DEG ---
	 ---------------------------------------------------------------------------
	   Coordinate                Previous        Force       Change         New 
	   ----------                --------       ------       ------       ------
	    1 R(1,2)          =      2.717370     0.028263     0.039398     2.756769
	    2 R(1,3)          =      2.717370     0.028263     0.039398     2.756769
	    3 R(2,3)          =      2.715895     0.026640     0.037568     2.753463
	    4 B(1,2,3)        =     60.017958     0.000002     0.021700    60.039658
	    5 B(1,3,2)        =     60.017958     0.000002     0.021700    60.039658
	    6 B(2,1,3)        =     59.964084    -0.000003    -0.043399    59.920684
	 ---------------------------------------------------------------------------
	Successfully symmetrized geometry.

  ==> Convergence Check <==

  Measures of convergence in internal coordinates in au.
  Criteria marked as inactive (o), active & met (*), and active & unmet ( ).
  ---------------------------------------------------------------------------------------------
   Step     Total Energy     Delta E     MAX Force     RMS Force      MAX Disp      RMS Disp   
  ---------------------------------------------------------------------------------------------
    Convergence Criteria    1.00e-06 *    3.00e-04 *             o    1.20e-03 *             o
  ---------------------------------------------------------------------------------------------
      2    -442.58295253   -2.16e-03      3.43e-03      2.38e-03 o    7.45e-02      5.18e-02 o  ~
  ---------------------------------------------------------------------------------------------

	Writing optimization data to binary file.
	Structure for next step:
	Cartesian Geometry (in Angstrom)
	   AG     0.0000000000   0.0000000000   1.5922567051
	   AG     1.3767314460   0.0000000000  -0.7961283526
	   AG    -1.3767314460  -0.0000000000  -0.7961283526
			--------------------------
			 OPTKING Finished Execution 
			--------------------------

    Structure for next step:
    Molecular point group: c2v
    Full point group: C2v

    Geometry (in Angstrom), charge = 1, multiplicity = 1:

    AG           0.000000000000    -0.000000000000     1.592256711382
    AG           1.376731451425     0.000000000000    -0.796128355691
    AG          -1.376731451425    -0.000000000000    -0.796128355691

gradient() will perform analytic gradient computation.

*** tstart() called on bp1-compute00157.data.bp.acrc.priv
*** at Fri Oct 29 08:03:40 2021

   => Loading Basis Set <=

    Name: DEF2-TZVPPD
    Role: ORBITAL
    Keyword: BASIS
    atoms 1-3 entry AG         line  2174 (ECP: line  3646) file /work/zw18965/.conda/envs/p4env/share/psi4/basis/def2-tzvppd.gbs 

    !!!  WARNING: ECP capability is in beta. Please check occupations closely.  !!!


         ---------------------------------------------------------
                                   SCF
               by Justin Turney, Rob Parrish, Andy Simmonett
                          and Daniel G. A. Smith
                              RKS Reference
                       24 Threads, 137329 MiB Core
         ---------------------------------------------------------

  ==> Geometry <==

    Molecular point group: c2v
    Full point group: C2v

    Geometry (in Angstrom), charge = 1, multiplicity = 1:

       Center              X                  Y                   Z               Mass       
    ------------   -----------------  -----------------  -----------------  -----------------
         AG           0.000000000000    -0.000000000000     1.592256711382   106.905091600000
         AG           1.376731451425     0.000000000000    -0.796128355691   106.905091600000
         AG          -1.376731451425    -0.000000000000    -0.796128355691   106.905091600000

  Running in c2v symmetry.

  Rotational constants: A =      0.04160  B =      0.04146  C =      0.02077 [cm^-1]
  Rotational constants: A =   1247.06860  B =   1243.08657  C =    622.53720 [MHz]
  Nuclear repulsion =  207.971128094153443

  Charge       = 1
  Multiplicity = 1
  Electrons    = 56
  Nalpha       = 28
  Nbeta        = 28

  ==> Algorithm <==

  SCF Algorithm Type is DF.
  DIIS enabled.
  MOM disabled.
  Fractional occupation disabled.
  Guess Type is READ.
  Energy threshold   = 1.00e-08
  Density threshold  = 1.00e-08
  Integral threshold = 0.00e+00

  ==> Primary Basis <==

  Basis Set: DEF2-TZVPPD
    Blend: DEF2-TZVPPD
    Number of shells: 48
    Number of basis function: 168
    Number of Cartesian functions: 213
    Spherical Harmonics?: true
    Max angular momentum: 4

  Core potential: DEF2-TZVPPD
    Number of shells: 12
    Number of ECP primitives: 42
    Number of ECP core electrons: 84
    Max angular momentum: 3

  ==> DFT Potential <==

   => Composite Functional: GAM <= 

   GAM GGA Minessota Exchange-Correlation Functional

    H.S. Yu, et al., Phys. Chem. Chem. Phys. 17, 12146, 2015


    Deriv               =              1
    GGA                 =           TRUE
    Meta                =          FALSE

    Exchange Hybrid     =          FALSE
    MP2 Hybrid          =          FALSE

   => Exchange Functionals <=

    1.0000     XC_GGA_X_GAM

   => Correlation Functionals <=

    1.0000     XC_GGA_C_GAM

   => Molecular Quadrature <=

    Radial Scheme          =       TREUTLER
    Pruning Scheme         =           FLAT
    Nuclear Scheme         =       TREUTLER

    BS radius alpha        =              1
    Pruning alpha          =              1
    Radial Points          =             75
    Spherical Points       =            302
    Total Points           =          67409
    Total Blocks           =            593
    Max Points             =            255
    Max Functions          =            165

   => Loading Basis Set <=

    Name: (DEF2-TZVPPD AUX)
    Role: JKFIT
    Keyword: DF_BASIS_SCF
    atoms 1-3 entry AG         line  4369 file /work/zw18965/.conda/envs/p4env/share/psi4/basis/def2-tzvpp-jkfit.gbs 

   => Loading Basis Set <=

    Name: DEF2-TZVPPD
    Role: ORBITAL
    Keyword: BASIS
    atoms 1-3 entry AG         line  2174 (ECP: line  3646) file /work/zw18965/.conda/envs/p4env/share/psi4/basis/def2-tzvppd.gbs 

    !!!  WARNING: ECP capability is in beta. Please check occupations closely.  !!!

  Reading orbitals from file 180, no projection.

  ==> Pre-Iterations <==

   -------------------------------------------------------
    Irrep   Nso     Nmo     Nalpha   Nbeta   Ndocc  Nsocc
   -------------------------------------------------------
     A1        59      59       0       0       0       0
     A2        27      27       0       0       0       0
     B1        49      49       0       0       0       0
     B2        33      33       0       0       0       0
   -------------------------------------------------------
    Total     168     168      28      28      28       0
   -------------------------------------------------------

  ==> Integral Setup <==

  DFHelper Memory: AOs need 0.176 GiB; user supplied 100.352 GiB. Using in-core AOs.

  ==> MemDFJK: Density-Fitted J/K Matrices <==

    J tasked:                   Yes
    K tasked:                    No
    wK tasked:                   No
    OpenMP threads:              24
    Memory [MiB]:            102760
    Algorithm:                 Core
    Schwarz Cutoff:           1E-12
    Mask sparsity (%):       1.7857
    Fitting Condition:        1E-10

   => Auxiliary Basis Set <=

  Basis Set: (DEF2-TZVPPD AUX)
    Blend: DEF2-TZVPP-JKFIT
    Number of shells: 147
    Number of basis function: 765
    Number of Cartesian functions: 1152
    Spherical Harmonics?: true
    Max angular momentum: 6

  Cached 100.0% of DFT collocation blocks in 0.231 [GiB].

  Minimum eigenvalue in the overlap matrix is 3.5389855921E-03.
  Using Symmetric Orthogonalization.

  SCF Guess: Orbitals guess was supplied from a previous computation.

  ==> Iterations <==

                           Total Energy        Delta E     RMS |[F,P]|

   @DF-RKS iter   0:  -442.57429043911191   -4.42574e+02   8.42947e-04 
   @DF-RKS iter   1:  -442.58328667662761   -8.99624e-03   7.02207e-05 DIIS
   @DF-RKS iter   2:  -442.58326478887602    2.18878e-05   1.29648e-04 DIIS
   @DF-RKS iter   3:  -442.58330690628168   -4.21174e-05   1.22378e-05 DIIS
   @DF-RKS iter   4:  -442.58330739222390   -4.85942e-07   5.17421e-06 DIIS
   @DF-RKS iter   5:  -442.58330745349292   -6.12690e-08   1.05636e-06 DIIS
   @DF-RKS iter   6:  -442.58330745486364   -1.37072e-09   5.89453e-07 DIIS
   @DF-RKS iter   7:  -442.58330745600563   -1.14198e-09   7.91061e-08 DIIS
   @DF-RKS iter   8:  -442.58330745602575   -2.01226e-11   5.29341e-09 DIIS
  Energy and wave function converged.


  ==> Post-Iterations <==

    Orbital Energies [Eh]
    ---------------------

    Doubly Occupied:                                                      

       1A1    -3.774683     2A1    -3.774414     1B1    -3.774413  
       3A1    -2.408263     4A1    -2.406429     2B1    -2.406410  
       3B1    -2.404770     5A1    -2.404768     4B1    -2.404589  
       1B2    -2.403084     2B2    -2.402776     1A2    -2.402766  
       6A1    -0.508537     7A1    -0.494643     5B1    -0.494485  
       3B2    -0.489075     8A1    -0.478769     4B2    -0.475981  
       2A2    -0.475923     9A1    -0.462509     6B1    -0.462431  
       3A2    -0.459462     5B2    -0.457745     4A2    -0.457727  
      10A1    -0.456706     7B1    -0.456623     8B1    -0.445902  
      11A1    -0.397729  

    Virtual:                                                              

      12A1    -0.291421     9B1    -0.291279     6B2    -0.213335  
      13A1    -0.182160    14A1    -0.173598    10B1    -0.173555  
       7B2    -0.126032     5A2    -0.125898    11B1    -0.058679  
      15A1    -0.050239    12B1    -0.050125    16A1    -0.047902  
      17A1     0.015515     8B2     0.018157    18A1     0.024587  
      13B1     0.024620    19A1     0.037331    14B1     0.037368  
       9B2     0.070690     6A2     0.070790    15B1     0.122951  
      20A1     0.150329    21A1     0.156603    16B1     0.156960  
       7A2     0.186573    10B2     0.186580    11B2     0.192861  
      22A1     0.286309    17B1     0.286350     8A2     0.326230  
      23A1     0.351006    12B2     0.385482     9A2     0.385630  
      18B1     0.387648    24A1     0.387735    25A1     0.476766  
      19B1     0.476847    20B1     0.520214    26A1     1.265011  
      21B1     1.265996    27A1     1.293419    28A1     1.298384  
      13B2     1.311182    14B2     1.312210    10A2     1.312375  
      29A1     1.327020    22B1     1.327176    15B2     1.333329  
      16B2     1.341393    11A2     1.341495    23B1     1.341514  
      17B2     1.344772    12A2     1.344996    30A1     1.355866  
      24B1     1.356107    31A1     1.372968    13A2     1.373360  
      25B1     1.373450    18B2     1.384895    26B1     1.412165  
      27B1     1.427807    32A1     1.427823    19B2     1.466519  
      14A2     1.466764    33A1     1.479628    28B1     1.493619  
      34A1     1.493663    29B1     1.641002    35A1     1.675077  
      36A1     1.793712    15A2     1.801414    20B2     1.801474  
      37A1     1.830942    30B1     1.831018    16A2     1.842079  
      21B2     1.843967    17A2     1.869025    22B2     1.869026  
      38A1     1.884759    31B1     1.885465    39A1     1.930548  
      32B1     1.931312    33B1     1.946956    40A1     2.103871  
      34B1     2.241522    41A1     2.241627    42A1     4.444432  
      43A1     4.445224    35B1     4.445454    23B2     4.461897  
      18A2     4.462141    44A1     4.462809    24B2     4.463127  
      25B2     4.477038    45A1     4.479554    36B1     4.479607  
      26B2     4.484161    19A2     4.484311    37B1     4.487518  
      20A2     4.516407    46A1     4.533549    38B1     4.534230  
      27B2     4.536682    21A2     4.536960    47A1     4.675296  
      39B1     4.676017    40B1     4.682020    48A1     5.222837  
      41B1     5.223396    49A1     5.223578    42B1     5.223641  
      22A2     5.223841    28B2     5.224120    29B2     5.224296  
      50A1     5.224485    23A2     5.224802    30B2     5.225077  
      43B1     5.225405    24A2     5.225416    51A1     5.225469  
      52A1     5.225691    31B2     5.226181    44B1     5.226214  
      32B2     5.226741    53A1     5.227157    54A1     5.227192  
      45B1     5.227224    25A2     5.227234    26A2     5.227382  
      27A2     5.227445    33B2     5.227922    46B1     5.228082  
      47B1     5.234266    55A1     5.234419    56A1    33.107955  
      57A1    33.433327    48B1    33.433619    58A1   110.574614  
      59A1   110.677693    49B1   110.677783  

    Final Occupation by Irrep:
             A1    A2    B1    B2 
    DOCC [    11,    4,    8,    5 ]

  @DF-RKS Final Energy:  -442.58330745602575

   => Energetics <=

    Nuclear Repulsion Energy =            207.9711280941534426
    One-Electron Energy =               -1189.8090089980037192
    Two-Electron Energy =                 583.5675545522661878
    DFT Exchange-Correlation Energy =     -44.3129811044415902
    Empirical Dispersion Energy =           0.0000000000000000
    VV10 Nonlocal Energy =                  0.0000000000000000
    Total Energy =                       -442.5833074560256932

Computation Completed


Properties will be evaluated at   0.000000,   0.000000,   0.000000 [a0]

Properties computed using the SCF density matrix

  Nuclear Dipole Moment: [e a0]
     X:    -0.0000      Y:     0.0000      Z:     0.0000

  Electronic Dipole Moment: [e a0]
     X:     0.0000      Y:     0.0000      Z:     0.0015

  Dipole Moment: [e a0]
     X:    -0.0000      Y:     0.0000      Z:     0.0015     Total:     0.0015

  Dipole Moment: [D]
     X:    -0.0000      Y:     0.0000      Z:     0.0039     Total:     0.0039


*** tstop() called on bp1-compute00157.data.bp.acrc.priv at Fri Oct 29 08:03:46 2021
Module time:
	user time   =      53.84 seconds =       0.90 minutes
	system time =       1.91 seconds =       0.03 minutes
	total time  =          6 seconds =       0.10 minutes
Total time:
	user time   =    1989.39 seconds =      33.16 minutes
	system time =      48.51 seconds =       0.81 minutes
	total time  =        295 seconds =       4.92 minutes

*** tstart() called on bp1-compute00157.data.bp.acrc.priv
*** at Fri Oct 29 08:03:46 2021


         ------------------------------------------------------------
                                   SCF GRAD                          
                          Rob Parrish, Justin Turney,                
                       Andy Simmonett, and Alex Sokolov              
         ------------------------------------------------------------

  ==> Geometry <==

    Molecular point group: c2v
    Full point group: C2v

    Geometry (in Angstrom), charge = 1, multiplicity = 1:

       Center              X                  Y                   Z               Mass       
    ------------   -----------------  -----------------  -----------------  -----------------
         AG           0.000000000000    -0.000000000000     1.592256711382   106.905091600000
         AG           1.376731451425     0.000000000000    -0.796128355691   106.905091600000
         AG          -1.376731451425    -0.000000000000    -0.796128355691   106.905091600000

  Nuclear repulsion =  207.971128094153443

  ==> Basis Set <==

  Basis Set: DEF2-TZVPPD
    Blend: DEF2-TZVPPD
    Number of shells: 48
    Number of basis function: 168
    Number of Cartesian functions: 213
    Spherical Harmonics?: true
    Max angular momentum: 4

  Core potential: DEF2-TZVPPD
    Number of shells: 12
    Number of ECP primitives: 42
    Number of ECP core electrons: 84
    Max angular momentum: 3

  ==> DFJKGrad: Density-Fitted SCF Gradients <==

    Gradient:                    1
    J tasked:                  Yes
    K tasked:                   No
    wK tasked:                  No
    OpenMP threads:             24
    Integrals threads:          24
    Memory [MiB]:           102996
    Schwarz Cutoff:          0E+00
    Fitting Condition:       1E-10

   => Auxiliary Basis Set <=

  Basis Set: (DEF2-TZVPPD AUX)
    Blend: DEF2-TZVPP-JKFIT
    Number of shells: 147
    Number of basis function: 765
    Number of Cartesian functions: 1152
    Spherical Harmonics?: true
    Max angular momentum: 6

  ==> DFT Potential <==

   => Composite Functional: GAM <= 

   GAM GGA Minessota Exchange-Correlation Functional

    H.S. Yu, et al., Phys. Chem. Chem. Phys. 17, 12146, 2015


    Deriv               =              1
    GGA                 =           TRUE
    Meta                =          FALSE

    Exchange Hybrid     =          FALSE
    MP2 Hybrid          =          FALSE

   => Exchange Functionals <=

    1.0000     XC_GGA_X_GAM

   => Correlation Functionals <=

    1.0000     XC_GGA_C_GAM

   => Molecular Quadrature <=

    Radial Scheme          =       TREUTLER
    Pruning Scheme         =           FLAT
    Nuclear Scheme         =       TREUTLER

    BS radius alpha        =              1
    Pruning alpha          =              1
    Radial Points          =             75
    Spherical Points       =            302
    Total Points           =          67409
    Total Blocks           =            593
    Max Points             =            255
    Max Functions          =            165


  -Total Gradient:
     Atom            X                  Y                   Z
    ------   -----------------  -----------------  -----------------
       1        0.000000000000    -0.000000000000    -0.109572496272
       2       -0.095214273766    -0.000000000000     0.054868886641
       3        0.095214273766     0.000000000000     0.054868886641


*** tstop() called on bp1-compute00157.data.bp.acrc.priv at Fri Oct 29 08:03:51 2021
Module time:
	user time   =      40.63 seconds =       0.68 minutes
	system time =       2.86 seconds =       0.05 minutes
	total time  =          5 seconds =       0.08 minutes
Total time:
	user time   =    2030.07 seconds =      33.83 minutes
	system time =      51.37 seconds =       0.86 minutes
	total time  =        300 seconds =       5.00 minutes


  ==> Adding ECP gradient terms (computed numerically) <==

  -ECP Gradient:
     Atom            X                  Y                   Z
    ------   -----------------  -----------------  -----------------
       1        0.000000000000     0.000000000000     0.108315416867
       2        0.094143240119     0.000000000000    -0.054157708060
       3       -0.094143240119    -0.000000000000    -0.054157708060


  -Total Gradient:
     Atom            X                  Y                   Z
    ------   -----------------  -----------------  -----------------
       1        0.000000000000    -0.000000000000    -0.001257079405
       2       -0.001071033647    -0.000000000000     0.000711178580
       3        0.001071033647     0.000000000000     0.000711178580


			-----------------------------------------
			 OPTKING 2.0: for geometry optimizations 
			  - R.A. King,  Bethel University        
			-----------------------------------------
	At level 1: Red. Int., RFO, no backsteps, dynamic trust

	Previous internal coordinate definitions found.
	---Fragment 1 Geometry and Gradient---
	 AG          0.0000000000       -0.0000000000        3.0089291059
	 AG          2.6016453915        0.0000000000       -1.5044645530
	 AG         -2.6016453915       -0.0000000000       -1.5044645530
	             0.0000000000       -0.0000000000       -0.0012570794
	            -0.0010710336       -0.0000000000        0.0007111786
	             0.0010710336        0.0000000000        0.0007111786

	---Fragment 1 Intrafragment Coordinates---
	 - Coordinate -           - BOHR/RAD -       - ANG/DEG -
	 R(1,2)           =         5.209538	       2.756769
	 R(1,3)           =         5.209538	       2.756769
	 R(2,3)           =         5.203291	       2.753463
	 B(1,2,3)         =         1.047890	      60.039658
	 B(1,3,2)         =         1.047890	      60.039658
	 B(2,1,3)         =         1.045813	      59.920684

	Current energy   :      -442.5833074560

	Energy change for the previous step:
		Projected    :        -0.0007528027
		Actual       :        -0.0003549292

	Performing BFGS update.
	Previous computed or guess Hessian on step 1.
	Steps to be used in Hessian update: 2 1
	Taking RFO optimization step.
	Going to follow RFO solution 1.
	Using RFO vector 1.
	Norm of target step-size    0.03051
	Projected energy change by RFO approximation:        -0.0000405678

	Back-transformation to cartesian coordinates...
	Successfully converged to displaced geometry.

	--- Internal Coordinate Step in ANG or DEG, aJ/ANG or AJ/DEG ---
	 ---------------------------------------------------------------------------
	   Coordinate                Previous        Force       Change         New 
	   ----------                --------       ------       ------       ------
	    1 R(1,2)          =      2.756769     0.006222     0.009496     2.766265
	    2 R(1,3)          =      2.756769     0.006222     0.009496     2.766265
	    3 R(2,3)          =      2.753463     0.005743     0.008958     2.762421
	    4 B(1,2,3)        =     60.039658     0.000000     0.006294    60.045952
	    5 B(1,3,2)        =     60.039658     0.000000     0.006294    60.045952
	    6 B(2,1,3)        =     59.920684    -0.000001    -0.012588    59.908096
	 ---------------------------------------------------------------------------
	Successfully symmetrized geometry.

  ==> Convergence Check <==

  Measures of convergence in internal coordinates in au.
  Criteria marked as inactive (o), active & met (*), and active & unmet ( ).
  ---------------------------------------------------------------------------------------------
   Step     Total Energy     Delta E     MAX Force     RMS Force      MAX Disp      RMS Disp   
  ---------------------------------------------------------------------------------------------
    Convergence Criteria    1.00e-06 *    3.00e-04 *             o    1.20e-03 *             o
  ---------------------------------------------------------------------------------------------
      3    -442.58330746   -3.55e-04      7.55e-04      5.21e-04 o    1.79e-02      1.25e-02 o  ~
  ---------------------------------------------------------------------------------------------

	Writing optimization data to binary file.
	Structure for next step:
	Cartesian Geometry (in Angstrom)
	   AG     0.0000000000   0.0000000000   1.5978427560
	   AG     1.3812106200   0.0000000000  -0.7989213780
	   AG    -1.3812106200  -0.0000000000  -0.7989213780
			--------------------------
			 OPTKING Finished Execution 
			--------------------------

    Structure for next step:
    Molecular point group: c2v
    Full point group: C2v

    Geometry (in Angstrom), charge = 1, multiplicity = 1:

    AG           0.000000000000     0.000000000000     1.597842762303
    AG           1.381210625462     0.000000000000    -0.798921381151
    AG          -1.381210625462    -0.000000000000    -0.798921381151

gradient() will perform analytic gradient computation.

*** tstart() called on bp1-compute00157.data.bp.acrc.priv
*** at Fri Oct 29 08:06:04 2021

   => Loading Basis Set <=

    Name: DEF2-TZVPPD
    Role: ORBITAL
    Keyword: BASIS
    atoms 1-3 entry AG         line  2174 (ECP: line  3646) file /work/zw18965/.conda/envs/p4env/share/psi4/basis/def2-tzvppd.gbs 

    !!!  WARNING: ECP capability is in beta. Please check occupations closely.  !!!


         ---------------------------------------------------------
                                   SCF
               by Justin Turney, Rob Parrish, Andy Simmonett
                          and Daniel G. A. Smith
                              RKS Reference
                       24 Threads, 137329 MiB Core
         ---------------------------------------------------------

  ==> Geometry <==

    Molecular point group: c2v
    Full point group: C2v

    Geometry (in Angstrom), charge = 1, multiplicity = 1:

       Center              X                  Y                   Z               Mass       
    ------------   -----------------  -----------------  -----------------  -----------------
         AG           0.000000000000    -0.000000000000     1.597842762303   106.905091600000
         AG           1.381210625462     0.000000000000    -0.798921381151   106.905091600000
         AG          -1.381210625462    -0.000000000000    -0.798921381151   106.905091600000

  Running in c2v symmetry.

  Rotational constants: A =      0.04133  B =      0.04118  C =      0.02063 [cm^-1]
  Rotational constants: A =   1238.99340  B =   1234.41011  C =    618.34875 [MHz]
  Nuclear repulsion =  207.270363797026391

  Charge       = 1
  Multiplicity = 1
  Electrons    = 56
  Nalpha       = 28
  Nbeta        = 28

  ==> Algorithm <==

  SCF Algorithm Type is DF.
  DIIS enabled.
  MOM disabled.
  Fractional occupation disabled.
  Guess Type is READ.
  Energy threshold   = 1.00e-08
  Density threshold  = 1.00e-08
  Integral threshold = 0.00e+00

  ==> Primary Basis <==

  Basis Set: DEF2-TZVPPD
    Blend: DEF2-TZVPPD
    Number of shells: 48
    Number of basis function: 168
    Number of Cartesian functions: 213
    Spherical Harmonics?: true
    Max angular momentum: 4

  Core potential: DEF2-TZVPPD
    Number of shells: 12
    Number of ECP primitives: 42
    Number of ECP core electrons: 84
    Max angular momentum: 3

  ==> DFT Potential <==

   => Composite Functional: GAM <= 

   GAM GGA Minessota Exchange-Correlation Functional

    H.S. Yu, et al., Phys. Chem. Chem. Phys. 17, 12146, 2015


    Deriv               =              1
    GGA                 =           TRUE
    Meta                =          FALSE

    Exchange Hybrid     =          FALSE
    MP2 Hybrid          =          FALSE

   => Exchange Functionals <=

    1.0000     XC_GGA_X_GAM

   => Correlation Functionals <=

    1.0000     XC_GGA_C_GAM

   => Molecular Quadrature <=

    Radial Scheme          =       TREUTLER
    Pruning Scheme         =           FLAT
    Nuclear Scheme         =       TREUTLER

    BS radius alpha        =              1
    Pruning alpha          =              1
    Radial Points          =             75
    Spherical Points       =            302
    Total Points           =          67409
    Total Blocks           =            588
    Max Points             =            256
    Max Functions          =            165

   => Loading Basis Set <=

    Name: (DEF2-TZVPPD AUX)
    Role: JKFIT
    Keyword: DF_BASIS_SCF
    atoms 1-3 entry AG         line  4369 file /work/zw18965/.conda/envs/p4env/share/psi4/basis/def2-tzvpp-jkfit.gbs 

   => Loading Basis Set <=

    Name: DEF2-TZVPPD
    Role: ORBITAL
    Keyword: BASIS
    atoms 1-3 entry AG         line  2174 (ECP: line  3646) file /work/zw18965/.conda/envs/p4env/share/psi4/basis/def2-tzvppd.gbs 

    !!!  WARNING: ECP capability is in beta. Please check occupations closely.  !!!

  Reading orbitals from file 180, no projection.

  ==> Pre-Iterations <==

   -------------------------------------------------------
    Irrep   Nso     Nmo     Nalpha   Nbeta   Ndocc  Nsocc
   -------------------------------------------------------
     A1        59      59       0       0       0       0
     A2        27      27       0       0       0       0
     B1        49      49       0       0       0       0
     B2        33      33       0       0       0       0
   -------------------------------------------------------
    Total     168     168      28      28      28       0
   -------------------------------------------------------

  ==> Integral Setup <==

  DFHelper Memory: AOs need 0.175 GiB; user supplied 100.353 GiB. Using in-core AOs.

  ==> MemDFJK: Density-Fitted J/K Matrices <==

    J tasked:                   Yes
    K tasked:                    No
    wK tasked:                   No
    OpenMP threads:              24
    Memory [MiB]:            102761
    Algorithm:                 Core
    Schwarz Cutoff:           1E-12
    Mask sparsity (%):       1.8566
    Fitting Condition:        1E-10

   => Auxiliary Basis Set <=

  Basis Set: (DEF2-TZVPPD AUX)
    Blend: DEF2-TZVPP-JKFIT
    Number of shells: 147
    Number of basis function: 765
    Number of Cartesian functions: 1152
    Spherical Harmonics?: true
    Max angular momentum: 6

  Cached 100.0% of DFT collocation blocks in 0.230 [GiB].

  Minimum eigenvalue in the overlap matrix is 3.5992988996E-03.
  Using Symmetric Orthogonalization.

  SCF Guess: Orbitals guess was supplied from a previous computation.

  ==> Iterations <==

                           Total Energy        Delta E     RMS |[F,P]|

   @DF-RKS iter   0:  -442.58102916103007   -4.42581e+02   1.96401e-04 
   @DF-RKS iter   1:  -442.58331502371288   -2.28586e-03   1.92415e-05 DIIS
   @DF-RKS iter   2:  -442.58331335930734    1.66441e-06   3.53704e-05 DIIS
   @DF-RKS iter   3:  -442.58331646970169   -3.11039e-06   3.18003e-06 DIIS
   @DF-RKS iter   4:  -442.58331650189757   -3.21959e-08   1.36849e-06 DIIS
   @DF-RKS iter   5:  -442.58331650620266   -4.30509e-09   2.55808e-07 DIIS
   @DF-RKS iter   6:  -442.58331650626519   -6.25278e-11   1.62310e-07 DIIS
   @DF-RKS iter   7:  -442.58331650635250   -8.73115e-11   1.96738e-08 DIIS
   @DF-RKS iter   8:  -442.58331650635364   -1.13687e-12   1.33504e-09 DIIS
  Energy and wave function converged.


  ==> Post-Iterations <==

    Orbital Energies [Eh]
    ---------------------

    Doubly Occupied:                                                      

       1A1    -3.774327     2A1    -3.774071     1B1    -3.774070  
       3A1    -2.407806     4A1    -2.406045     2B1    -2.406023  
       3B1    -2.404446     5A1    -2.404444     4B1    -2.404273  
       1B2    -2.402764     2B2    -2.402469     1A2    -2.402458  
       6A1    -0.507493     7A1    -0.493894     5B1    -0.493715  
       3B2    -0.488346     8A1    -0.478256     4B2    -0.475527  
       2A2    -0.475459     9A1    -0.462319     6B1    -0.462229  
       3A2    -0.459329     5B2    -0.457626     4A2    -0.457600  
      10A1    -0.456581     7B1    -0.456488     8B1    -0.445978  
      11A1    -0.397228  

    Virtual:                                                              

      12A1    -0.291471     9B1    -0.291307     6B2    -0.213038  
      13A1    -0.182208    14A1    -0.173684    10B1    -0.173634  
       7B2    -0.126183     5A2    -0.126029    11B1    -0.059092  
      15A1    -0.050534    12B1    -0.050399    16A1    -0.047849  
      17A1     0.015522     8B2     0.018435    18A1     0.024609  
      13B1     0.024648    19A1     0.037336    14B1     0.037379  
       9B2     0.070646     6A2     0.070761    15B1     0.122425  
      20A1     0.150023    21A1     0.155298    16B1     0.155715  
       7A2     0.186335    10B2     0.186340    11B2     0.192036  
      22A1     0.285839    17B1     0.285883     8A2     0.325830  
      23A1     0.350526    12B2     0.385150     9A2     0.385324  
      18B1     0.386826    24A1     0.386926    25A1     0.476650  
      19B1     0.476752    20B1     0.519660    26A1     1.267966  
      21B1     1.269071    27A1     1.295652    28A1     1.300675  
      13B2     1.312057    14B2     1.313194    10A2     1.313383  
      29A1     1.327216    22B1     1.327400    15B2     1.333854  
      16B2     1.341529    23B1     1.341563    11A2     1.341639  
      17B2     1.344345    12A2     1.344603    30A1     1.354980  
      24B1     1.355249    31A1     1.371188    25B1     1.371749  
      13A2     1.372241    18B2     1.385061    26B1     1.409895  
      27B1     1.427687    32A1     1.427738    19B2     1.465561  
      14A2     1.465844    33A1     1.480363    28B1     1.492389  
      34A1     1.492440    29B1     1.639710    35A1     1.672844  
      36A1     1.794276    15A2     1.801775    20B2     1.801847  
      37A1     1.831074    30B1     1.831166    16A2     1.842044  
      21B2     1.844521    22B2     1.868973    17A2     1.868977  
      38A1     1.887210    31B1     1.888021    39A1     1.927894  
      32B1     1.928738    33B1     1.943928    40A1     2.102908  
      34B1     2.238367    41A1     2.238498    42A1     4.446379  
      43A1     4.446568    35B1     4.446659    23B2     4.463075  
      18A2     4.463353    44A1     4.463683    24B2     4.464553  
      25B2     4.477562    45A1     4.479969    36B1     4.480034  
      26B2     4.484327    19A2     4.484483    37B1     4.487539  
      20A2     4.515407    46A1     4.532093    38B1     4.532856  
      27B2     4.535276    21A2     4.535616    47A1     4.671874  
      39B1     4.672677    40B1     4.678134    48A1     5.223203  
      41B1     5.223745    49A1     5.223933    42B1     5.223964  
      22A2     5.224191    28B2     5.224468    29B2     5.224622  
      50A1     5.224815    23A2     5.225139    30B2     5.225427  
      43B1     5.225739    24A2     5.225752    51A1     5.225787  
      52A1     5.226001    44B1     5.226506    31B2     5.226506  
      32B2     5.227040    53A1     5.227441    54A1     5.227476  
      45B1     5.227503    25A2     5.227521    26A2     5.227662  
      27A2     5.227722    33B2     5.228206    46B1     5.228330  
      47B1     5.234383    55A1     5.234535    56A1    33.105286  
      57A1    33.429005    48B1    33.429364    58A1   110.574028  
      59A1   110.676562    49B1   110.676674  

    Final Occupation by Irrep:
             A1    A2    B1    B2 
    DOCC [    11,    4,    8,    5 ]

  @DF-RKS Final Energy:  -442.58331650635364

   => Energetics <=

    Nuclear Repulsion Energy =            207.2703637970263912
    One-Electron Energy =               -1188.4288991108378468
    Two-Electron Energy =                 582.8870039672965504
    DFT Exchange-Correlation Energy =     -44.3117851598388484
    Empirical Dispersion Energy =           0.0000000000000000
    VV10 Nonlocal Energy =                  0.0000000000000000
    Total Energy =                       -442.5833165063536967

Computation Completed


Properties will be evaluated at   0.000000,   0.000000,   0.000000 [a0]

Properties computed using the SCF density matrix

  Nuclear Dipole Moment: [e a0]
     X:     0.0000      Y:    -0.0000      Z:    -0.0000

  Electronic Dipole Moment: [e a0]
     X:     0.0000      Y:     0.0000      Z:     0.0018

  Dipole Moment: [e a0]
     X:     0.0000      Y:    -0.0000      Z:     0.0018     Total:     0.0018

  Dipole Moment: [D]
     X:     0.0000      Y:    -0.0000      Z:     0.0045     Total:     0.0045


*** tstop() called on bp1-compute00157.data.bp.acrc.priv at Fri Oct 29 08:06:09 2021
Module time:
	user time   =      53.24 seconds =       0.89 minutes
	system time =       1.82 seconds =       0.03 minutes
	total time  =          5 seconds =       0.08 minutes
Total time:
	user time   =    2948.91 seconds =      49.15 minutes
	system time =      70.81 seconds =       1.18 minutes
	total time  =        438 seconds =       7.30 minutes

*** tstart() called on bp1-compute00157.data.bp.acrc.priv
*** at Fri Oct 29 08:06:09 2021


         ------------------------------------------------------------
                                   SCF GRAD                          
                          Rob Parrish, Justin Turney,                
                       Andy Simmonett, and Alex Sokolov              
         ------------------------------------------------------------

  ==> Geometry <==

    Molecular point group: c2v
    Full point group: C2v

    Geometry (in Angstrom), charge = 1, multiplicity = 1:

       Center              X                  Y                   Z               Mass       
    ------------   -----------------  -----------------  -----------------  -----------------
         AG           0.000000000000    -0.000000000000     1.597842762303   106.905091600000
         AG           1.381210625462     0.000000000000    -0.798921381151   106.905091600000
         AG          -1.381210625462    -0.000000000000    -0.798921381151   106.905091600000

  Nuclear repulsion =  207.270363797026391

  ==> Basis Set <==

  Basis Set: DEF2-TZVPPD
    Blend: DEF2-TZVPPD
    Number of shells: 48
    Number of basis function: 168
    Number of Cartesian functions: 213
    Spherical Harmonics?: true
    Max angular momentum: 4

  Core potential: DEF2-TZVPPD
    Number of shells: 12
    Number of ECP primitives: 42
    Number of ECP core electrons: 84
    Max angular momentum: 3

  ==> DFJKGrad: Density-Fitted SCF Gradients <==

    Gradient:                    1
    J tasked:                  Yes
    K tasked:                   No
    wK tasked:                  No
    OpenMP threads:             24
    Integrals threads:          24
    Memory [MiB]:           102996
    Schwarz Cutoff:          0E+00
    Fitting Condition:       1E-10

   => Auxiliary Basis Set <=

  Basis Set: (DEF2-TZVPPD AUX)
    Blend: DEF2-TZVPP-JKFIT
    Number of shells: 147
    Number of basis function: 765
    Number of Cartesian functions: 1152
    Spherical Harmonics?: true
    Max angular momentum: 6

  ==> DFT Potential <==

   => Composite Functional: GAM <= 

   GAM GGA Minessota Exchange-Correlation Functional

    H.S. Yu, et al., Phys. Chem. Chem. Phys. 17, 12146, 2015


    Deriv               =              1
    GGA                 =           TRUE
    Meta                =          FALSE

    Exchange Hybrid     =          FALSE
    MP2 Hybrid          =          FALSE

   => Exchange Functionals <=

    1.0000     XC_GGA_X_GAM

   => Correlation Functionals <=

    1.0000     XC_GGA_C_GAM

   => Molecular Quadrature <=

    Radial Scheme          =       TREUTLER
    Pruning Scheme         =           FLAT
    Nuclear Scheme         =       TREUTLER

    BS radius alpha        =              1
    Pruning alpha          =              1
    Radial Points          =             75
    Spherical Points       =            302
    Total Points           =          67409
    Total Blocks           =            588
    Max Points             =            256
    Max Functions          =            165


  -Total Gradient:
     Atom            X                  Y                   Z
    ------   -----------------  -----------------  -----------------
       1        0.000000000000    -0.000000000000    -0.106676136271
       2       -0.092799808269    -0.000000000000     0.053429297596
       3        0.092799808269     0.000000000000     0.053429297596


*** tstop() called on bp1-compute00157.data.bp.acrc.priv at Fri Oct 29 08:06:14 2021
Module time:
	user time   =      40.37 seconds =       0.67 minutes
	system time =       2.81 seconds =       0.05 minutes
	total time  =          5 seconds =       0.08 minutes
[...]
   -------------------------------------------------------

  ==> Integral Setup <==

  DFHelper Memory: AOs need 0.175 GiB; user supplied 100.353 GiB. Using in-core AOs.

  ==> MemDFJK: Density-Fitted J/K Matrices <==

    J tasked:                   Yes
    K tasked:                    No
    wK tasked:                   No
    OpenMP threads:              24
    Memory [MiB]:            102760
    Algorithm:                 Core
    Schwarz Cutoff:           1E-12
    Mask sparsity (%):       1.8849
    Fitting Condition:        1E-10

   => Auxiliary Basis Set <=

  Basis Set: (DEF2-TZVPPD AUX)
    Blend: DEF2-TZVPP-JKFIT
    Number of shells: 147
    Number of basis function: 765
    Number of Cartesian functions: 1152
    Spherical Harmonics?: true
    Max angular momentum: 6

  Cached 100.0% of DFT collocation blocks in 0.230 [GiB].

  Minimum eigenvalue in the overlap matrix is 3.6042272420E-03.
  Using Symmetric Orthogonalization.

  SCF Guess: Superposition of Atomic Densities via on-the-fly atomic UHF.

  ==> Iterations <==

                           Total Energy        Delta E     RMS |[F,P]|

   @DF-RKS iter SAD:  -442.18734798195430   -4.42187e+02   0.00000e+00 
   @DF-RKS iter   1:  -442.54092292182384   -3.53575e-01   2.97717e-03 DIIS
   @DF-RKS iter   2:  -442.46972532311395    7.11976e-02   4.90875e-03 DIIS
   @DF-RKS iter   3:  -442.58296384323228   -1.13239e-01   2.74731e-04 DIIS
   @DF-RKS iter   4:  -442.58324670852403   -2.82865e-04   1.47218e-04 DIIS
   @DF-RKS iter   5:  -442.58333740994908   -9.07014e-05   2.80237e-05 DIIS
   @DF-RKS iter   6:  -442.58334067109786   -3.26115e-06   1.61020e-05 DIIS
   @DF-RKS iter   7:  -442.58334241458681   -1.74349e-06   2.62821e-06 DIIS
   @DF-RKS iter   8:  -442.58334245421622   -3.96294e-08   4.15624e-07 DIIS
   @DF-RKS iter   9:  -442.58334245535480   -1.13857e-09   7.22248e-08 DIIS
   @DF-RKS iter  10:  -442.58334245538515   -3.03544e-11   9.02143e-09 DIIS
  Energy and wave function converged.


  ==> Post-Iterations <==

    Orbital Energies [Eh]
    ---------------------

    Doubly Occupied:                                                      

       1Ap    -3.774301     2Ap    -3.774048     3Ap    -3.774043  
       4Ap    -2.407772     5Ap    -2.406019     6Ap    -2.405994  
       7Ap    -2.404424     8Ap    -2.404421     9Ap    -2.404252  
       1App   -2.402740     2App   -2.402445     3App   -2.402436  
      10Ap    -0.507413    11Ap    -0.493838    12Ap    -0.493652  
       4App   -0.488291    13Ap    -0.478218     5App   -0.475497  
       6App   -0.475420    14Ap    -0.462310    15Ap    -0.462218  
       7App   -0.459321     8App   -0.457632     9App   -0.457582  
      16Ap    -0.456574    17Ap    -0.456485    18Ap    -0.445987  
      19Ap    -0.397185  

    Virtual:                                                              

      20Ap    -0.291480    21Ap    -0.291312    10App   -0.213017  
      22Ap    -0.182204    23Ap    -0.173695    24Ap    -0.173641  
      11App   -0.126198    12App   -0.126042    25Ap    -0.059128  
      26Ap    -0.050564    27Ap    -0.050423    28Ap    -0.047844  
      29Ap     0.015532    13App    0.018456    30Ap     0.024610  
      31Ap     0.024649    32Ap     0.037332    33Ap     0.037379  
      14App    0.070641    15App    0.070756    34Ap     0.122380  
      35Ap     0.150009    36Ap     0.155165    37Ap     0.155609  
      16App    0.186312    17App    0.186315    18App    0.191965  
      38Ap     0.285796    39Ap     0.285843    19App    0.325794  
      40Ap     0.350533    20App    0.385118    21App    0.385294  
      41Ap     0.386754    42Ap     0.386850    43Ap     0.476587  
      44Ap     0.476747    45Ap     0.519610    46Ap     1.268201  
      47Ap     1.269319    48Ap     1.295847    49Ap     1.300855  
      22App    1.312123    23App    1.313261    24App    1.313472  
      50Ap     1.327228    51Ap     1.327426    25App    1.333892  
      26App    1.341546    52Ap     1.341556    27App    1.341635  
      28App    1.344294    29App    1.344581    53Ap     1.354902  
      54Ap     1.355183    55Ap     1.370986    56Ap     1.371592  
      30App    1.372147    31App    1.385073    57Ap     1.409698  
      58Ap     1.427666    59Ap     1.427733    32App    1.465476  
      33App    1.465767    60Ap     1.480432    61Ap     1.492287  
      62Ap     1.492334    63Ap     1.639585    64Ap     1.672663  
      65Ap     1.794316    34App    1.801812    35App    1.801860  
      66Ap     1.831068    67Ap     1.831187    36App    1.842037  
      37App    1.844555    38App    1.868918    39App    1.869010  
      68Ap     1.887401    69Ap     1.888206    70Ap     1.927656  
      71Ap     1.928514    72Ap     1.943688    73Ap     2.102946  
      74Ap     2.238082    75Ap     2.238214    76Ap     4.446372  
      77Ap     4.446719    78Ap     4.446873    40App    4.463131  
      41App    4.463462    79Ap     4.463801    42App    4.464681  
      43App    4.477640    80Ap     4.479949    81Ap     4.480031  
      44App    4.484405    45App    4.484517    82Ap     4.487466  
      46App    4.515299    83Ap     4.532142    84Ap     4.532902  
      47App    4.535141    48App    4.535513    85Ap     4.671446  
      86Ap     4.672298    87Ap     4.677697    88Ap     5.223219  
      89Ap     5.223928    90Ap     5.224044    49App    5.224254  
      91Ap     5.224306    50App    5.224621    51App    5.224789  
      52App    5.224937    92Ap     5.224972    93Ap     5.225303  
      53App    5.225423    54App    5.225710    94Ap     5.225742  
      95Ap     5.226282    55App    5.226634    96Ap     5.226648  
      56App    5.226858    97Ap     5.227016    98Ap     5.227475  
      57App    5.227600    58App    5.227651    99Ap     5.227821  
      59App    5.227856    60App    5.228236   100Ap     5.228278  
     101Ap     5.234077   102Ap     5.234611   103Ap    33.105066  
     104Ap    33.428640   105Ap    33.429011   106Ap   110.573974  
     107Ap   110.676460   108Ap   110.676577  

    Final Occupation by Irrep:
             Ap   App 
    DOCC [    19,    9 ]

  @DF-RKS Final Energy:  -442.58334245538515

   => Energetics <=

    Nuclear Repulsion Energy =            207.2122549881528641
    One-Electron Energy =               -1188.3142591301962057
    Two-Electron Energy =                 582.8303592729020011
    DFT Exchange-Correlation Energy =     -44.3116975862437812
    Empirical Dispersion Energy =           0.0000000000000000
    VV10 Nonlocal Energy =                  0.0000000000000000
    Total Energy =                       -442.5833424553851501

Computation Completed


Properties will be evaluated at   0.000000,   0.000000,   0.000000 [a0]

Properties computed using the SCF density matrix

  Nuclear Dipole Moment: [e a0]
     X:    -0.0000      Y:     0.0000      Z:    -0.0000

  Electronic Dipole Moment: [e a0]
     X:     0.0004      Y:     0.0000      Z:     0.0017

  Dipole Moment: [e a0]
     X:     0.0004      Y:     0.0000      Z:     0.0017     Total:     0.0017

  Dipole Moment: [D]
     X:     0.0009      Y:     0.0000      Z:     0.0043     Total:     0.0044


*** tstop() called on bp1-compute00157.data.bp.acrc.priv at Fri Oct 29 08:32:53 2021
Module time:
	user time   =      67.63 seconds =       1.13 minutes
	system time =       2.50 seconds =       0.04 minutes
	total time  =          7 seconds =       0.12 minutes
Total time:
	user time   =   13632.05 seconds =     227.20 minutes
	system time =     338.92 seconds =       5.65 minutes
	total time  =       2042 seconds =      34.03 minutes

*** tstart() called on bp1-compute00157.data.bp.acrc.priv
*** at Fri Oct 29 08:32:53 2021


         ------------------------------------------------------------
                                   SCF GRAD                          
                          Rob Parrish, Justin Turney,                
                       Andy Simmonett, and Alex Sokolov              
         ------------------------------------------------------------

  ==> Geometry <==

    Molecular point group: cs
    Full point group: Cs

    Geometry (in Angstrom), charge = 1, multiplicity = 1:

       Center              X                  Y                   Z               Mass       
    ------------   -----------------  -----------------  -----------------  -----------------
         AG          -0.000147605022     0.000000000000     1.598318124809   106.905091600000
         AG           1.381648167879     0.000000000000    -0.799287133568   106.905091600000
         AG          -1.381500562858     0.000000000000    -0.799030991241   106.905091600000

  Nuclear repulsion =  207.212254988152864

  ==> Basis Set <==

  Basis Set: DEF2-TZVPPD
    Blend: DEF2-TZVPPD
    Number of shells: 48
    Number of basis function: 168
    Number of Cartesian functions: 213
    Spherical Harmonics?: true
    Max angular momentum: 4

  Core potential: DEF2-TZVPPD
    Number of shells: 12
    Number of ECP primitives: 42
    Number of ECP core electrons: 84
    Max angular momentum: 3

  ==> DFJKGrad: Density-Fitted SCF Gradients <==

    Gradient:                    1
    J tasked:                  Yes
    K tasked:                   No
    wK tasked:                  No
    OpenMP threads:             24
    Integrals threads:          24
    Memory [MiB]:           102996
    Schwarz Cutoff:          0E+00
    Fitting Condition:       1E-10

   => Auxiliary Basis Set <=

  Basis Set: (DEF2-TZVPPD AUX)
    Blend: DEF2-TZVPP-JKFIT
    Number of shells: 147
    Number of basis function: 765
    Number of Cartesian functions: 1152
    Spherical Harmonics?: true
    Max angular momentum: 6

  ==> DFT Potential <==

   => Composite Functional: GAM <= 

   GAM GGA Minessota Exchange-Correlation Functional

    H.S. Yu, et al., Phys. Chem. Chem. Phys. 17, 12146, 2015


    Deriv               =              1
    GGA                 =           TRUE
    Meta                =          FALSE

    Exchange Hybrid     =          FALSE
    MP2 Hybrid          =          FALSE

   => Exchange Functionals <=

    1.0000     XC_GGA_X_GAM

   => Correlation Functionals <=

    1.0000     XC_GGA_C_GAM

   => Molecular Quadrature <=

    Radial Scheme          =       TREUTLER
    Pruning Scheme         =           FLAT
    Nuclear Scheme         =       TREUTLER

    BS radius alpha        =              1
    Pruning alpha          =              1
    Radial Points          =             75
    Spherical Points       =            302
    Total Points           =          67406
    Total Blocks           =            592
    Max Points             =            256
    Max Functions          =            165


  -Total Gradient:
     Atom            X                  Y                   Z
    ------   -----------------  -----------------  -----------------
       1       -0.000110265948     0.000000000000    -0.106394987591
       2       -0.092656327336     0.000000000000     0.053127992235
       3        0.092731228151     0.000000000000     0.053443584774


*** tstop() called on bp1-compute00157.data.bp.acrc.priv at Fri Oct 29 08:32:59 2021
Module time:
	user time   =      41.13 seconds =       0.69 minutes
	system time =       3.18 seconds =       0.05 minutes
	total time  =          6 seconds =       0.10 minutes
Total time:
	user time   =   13673.21 seconds =     227.89 minutes
	system time =     342.11 seconds =       5.70 minutes
	total time  =       2048 seconds =      34.13 minutes


  ==> Adding ECP gradient terms (computed numerically) <==

  -ECP Gradient:
     Atom            X                  Y                   Z
    ------   -----------------  -----------------  -----------------
       1        0.000026991600     0.000000000000     0.106282930652
       2        0.092412425587     0.000000000000    -0.053113909667
       3       -0.092439418313     0.000000000000    -0.053169020511


  -Total Gradient:
     Atom            X                  Y                   Z
    ------   -----------------  -----------------  -----------------
       1       -0.000083274348     0.000000000000    -0.000112056939
       2       -0.000243901748     0.000000000000     0.000014082567
       3        0.000291809838     0.000000000000     0.000274564263


         ----------------------------------------------------------
                                   FINDIF
                     R. A. King and Jonathon Misiewicz
         ---------------------------------------------------------

  Computing second-derivative from gradients using projected, 
  symmetry-adapted, cartesian coordinates.

  6 gradients passed in, including the reference geometry.
  Generating complete list of displacements from unique ones.

    Operation 2 takes plus displacements of irrep B1 to minus ones.

-------------------------------------------------------------


  ==> Harmonic Vibrational Analysis <==

  non-mass-weighted Hessian:       Symmetric? True   Hermitian? True   Lin Dep Dim?  6 (0)
  projection of translations (True) and rotations (True) removed 6 degrees of freedom (6)
  total projector:                 Symmetric? True   Hermitian? True   Lin Dep Dim?  6 (6)
  mass-weighted Hessian:           Symmetric? True   Hermitian? True   Lin Dep Dim?  6 (0)
  pre-proj  low-frequency mode:    0.0000i [cm^-1]
  pre-proj  low-frequency mode:    0.0000i [cm^-1]
  pre-proj  low-frequency mode:    0.0000  [cm^-1]
  pre-proj  low-frequency mode:    0.0000  [cm^-1]
  pre-proj  low-frequency mode:    0.0000  [cm^-1]
  pre-proj  low-frequency mode:    0.0000  [cm^-1]
  pre-proj  all modes:['0.0000i' '0.0000i' '0.0000' '0.0000' '0.0000' '0.0000' '107.5635'
 '153.8641' '313.4453']
  projected mass-weighted Hessian: Symmetric? True   Hermitian? True   Lin Dep Dim?  6 (6)
  post-proj low-frequency mode:    0.0000i [cm^-1] (TR)
  post-proj low-frequency mode:    0.0000i [cm^-1] (TR)
  post-proj low-frequency mode:    0.0000i [cm^-1] (TR)
  post-proj low-frequency mode:    0.0000  [cm^-1] (TR)
  post-proj low-frequency mode:    0.0000  [cm^-1] (TR)
  post-proj low-frequency mode:    0.0000  [cm^-1] (TR)
  post-proj  all modes:['0.0000i' '0.0000i' '0.0000i' '0.0000' '0.0000' '0.0000' '107.5635'
 '153.8641' '313.4453']

  Vibration                       7                   8                   9           
  Freq [cm^-1]                 107.5635            153.8641            313.4453       
  Irrep                           A1                  A1                  B1          
  Reduced mass [u]             106.9051            106.9051            106.9051       
  Force const [mDyne/A]         0.7287              1.4912              6.1883        
  Turning point v=0 [a0]        0.1023              0.0856              0.0599        
  RMS dev v=0 [a0 u^1/2]        0.7481              0.6255              0.4382        
  Char temp [K]                154.7599            221.3762            450.9779       
  ----------------------------------------------------------------------------------
      1   AG              -0.00 -0.00  0.57   -0.00  0.00  0.59    0.58  0.00  0.00   
      2   AG              -0.51 -0.00 -0.28    0.49  0.00 -0.29   -0.29 -0.00  0.50   
      3   AG               0.51  0.00 -0.28   -0.49 -0.00 -0.29   -0.29  0.00 -0.50   

  ==> Thermochemistry Components <==

  Entropy, S
    Electronic S            0.000 [cal/(mol K)]        0.000 [J/(mol K)]       0.00000000 [mEh/K] (multiplicity = 1)
    Translational S        43.192 [cal/(mol K)]      180.714 [J/(mol K)]       0.06883047 [mEh/K] (mol. weight = 320.7153 [u], P = 101325.00 [Pa])
    Rotational S           28.833 [cal/(mol K)]      120.638 [J/(mol K)]       0.04594860 [mEh/K] (symmetry no. = 2)
    Vibrational S           7.280 [cal/(mol K)]       30.461 [J/(mol K)]       0.01160203 [mEh/K]
  Total S                  79.305 [cal/(mol K)]      331.814 [J/(mol K)]       0.12638110 [mEh/K]
  Correction S              0.000 [cal/(mol K)]        0.000 [J/(mol K)]       0.00000000 [mEh/K]

  Constant volume heat capacity, Cv
    Electronic Cv           0.000 [cal/(mol K)]        0.000 [J/(mol K)]       0.00000000 [mEh/K]
    Translational Cv        2.981 [cal/(mol K)]       12.472 [J/(mol K)]       0.00475022 [mEh/K]
    Rotational Cv           2.981 [cal/(mol K)]       12.472 [J/(mol K)]       0.00475022 [mEh/K]
    Vibrational Cv          5.490 [cal/(mol K)]       22.968 [J/(mol K)]       0.00874819 [mEh/K]
  Total Cv                 11.451 [cal/(mol K)]       47.912 [J/(mol K)]       0.01824862 [mEh/K]
  Correction Cv             0.000 [cal/(mol K)]        0.000 [J/(mol K)]       0.00000000 [mEh/K]

  Constant pressure heat capacity, Cp
    Electronic Cp           0.000 [cal/(mol K)]        0.000 [J/(mol K)]       0.00000000 [mEh/K]
    Translational Cp        4.968 [cal/(mol K)]       20.786 [J/(mol K)]       0.00791703 [mEh/K]
    Rotational Cp           2.981 [cal/(mol K)]       12.472 [J/(mol K)]       0.00475022 [mEh/K]
    Vibrational Cp          5.490 [cal/(mol K)]       22.968 [J/(mol K)]       0.00874819 [mEh/K]
  Total Cp                 13.438 [cal/(mol K)]       56.226 [J/(mol K)]       0.02141544 [mEh/K]
  Correction Cp             0.000 [cal/(mol K)]        0.000 [J/(mol K)]       0.00000000 [mEh/K]

  ==> Thermochemistry Energy Analysis <==

  Raw electronic energy, E0
  Total E0, Electronic energy at well bottom at 0 [K]                 -442.58331603 [Eh]

  Zero-point energy, ZPE_vib = Sum_i nu_i / 2
    Electronic ZPE          0.000 [kcal/mol]        0.000 [kJ/mol]       0.00000000 [Eh]
    Translational ZPE       0.000 [kcal/mol]        0.000 [kJ/mol]       0.00000000 [Eh]
    Rotational ZPE          0.000 [kcal/mol]        0.000 [kJ/mol]       0.00000000 [Eh]
    Vibrational ZPE         0.822 [kcal/mol]        3.439 [kJ/mol]       0.00130966 [Eh]         287.436 [cm^-1]
  Correction ZPE            0.822 [kcal/mol]        3.439 [kJ/mol]       0.00130966 [Eh]         287.436 [cm^-1]
  Total ZPE, Electronic energy at 0 [K]                               -442.58200637 [Eh]

  Thermal Energy, E (includes ZPE)
    Electronic E            0.000 [kcal/mol]        0.000 [kJ/mol]       0.00000000 [Eh]
    Translational E         0.889 [kcal/mol]        3.718 [kJ/mol]       0.00141628 [Eh]
    Rotational E            0.889 [kcal/mol]        3.718 [kJ/mol]       0.00141628 [Eh]
    Vibrational E           1.927 [kcal/mol]        8.061 [kJ/mol]       0.00307015 [Eh]
  Correction E              3.704 [kcal/mol]       15.498 [kJ/mol]       0.00590270 [Eh]
  Total E, Electronic energy at  298.15 [K]                           -442.57741332 [Eh]

  Enthalpy, H_trans = E_trans + k_B * T
    Electronic H            0.000 [kcal/mol]        0.000 [kJ/mol]       0.00000000 [Eh]
    Translational H         1.481 [kcal/mol]        6.197 [kJ/mol]       0.00236046 [Eh]
    Rotational H            0.889 [kcal/mol]        3.718 [kJ/mol]       0.00141628 [Eh]
    Vibrational H           1.927 [kcal/mol]        8.061 [kJ/mol]       0.00307015 [Eh]
  Correction H              4.296 [kcal/mol]       17.977 [kJ/mol]       0.00684689 [Eh]
  Total H, Enthalpy at  298.15 [K]                                    -442.57646914 [Eh]

  Gibbs free energy, G = H - T * S
    Electronic G            0.000 [kcal/mol]        0.000 [kJ/mol]       0.00000000 [Eh]
    Translational G       -11.396 [kcal/mol]      -47.683 [kJ/mol]      -0.01816134 [Eh]
    Rotational G           -7.708 [kcal/mol]      -32.250 [kJ/mol]      -0.01228330 [Eh]
    Vibrational G          -0.244 [kcal/mol]       -1.021 [kJ/mol]      -0.00038899 [Eh]
  Correction G            -19.348 [kcal/mol]      -80.954 [kJ/mol]      -0.03083364 [Eh]
  Total G, Free enthalpy at  298.15 [K]                               -442.61414966 [Eh]

    Psi4 stopped on: Friday, 29 October 2021 08:35AM
    Psi4 wall time for execution: 0:36:25.51

*** Psi4 exiting successfully. Buy a developer a beer!
