
    -----------------------------------------------------------------------
          Psi4: An Open-Source Ab Initio Electronic Structure Package
                               Psi4 1.4.1 release

                         Git: Rev {HEAD} cd00f19 


    D. G. A. Smith, L. A. Burns, A. C. Simmonett, R. M. Parrish,
    M. C. Schieber, R. Galvelis, P. Kraus, H. Kruse, R. Di Remigio,
    A. Alenaizan, A. M. James, S. Lehtola, J. P. Misiewicz, M. Scheurer,
    R. A. Shaw, J. B. Schriber, Y. Xie, Z. L. Glick, D. A. Sirianni,
    J. S. O'Brien, J. M. Waldrop, A. Kumar, E. G. Hohenstein,
    B. P. Pritchard, B. R. Brooks, H. F. Schaefer III, A. Yu. Sokolov,
    K. Patkowski, A. E. DePrince III, U. Bozkaya, R. A. King,
    F. A. Evangelista, J. M. Turney, T. D. Crawford, C. D. Sherrill,
    J. Chem. Phys. 152(18) 184108 (2020). https://doi.org/10.1063/5.0006002

                            Additional Code Authors
    E. T. Seidl, C. L. Janssen, E. F. Valeev, M. L. Leininger,
    J. F. Gonthier, R. M. Richard, H. R. McAlexander, M. Saitow, X. Wang,
    P. Verma, and M. H. Lechner

             Previous Authors, Complete List of Code Contributors,
                       and Citations for Specific Modules
    https://github.com/psi4/psi4/blob/master/codemeta.json
    https://github.com/psi4/psi4/graphs/contributors
    http://psicode.org/psi4manual/master/introduction.html#citing-psifour

    -----------------------------------------------------------------------


    Psi4 started on: Friday, 05 November 2021 12:26PM

    Process ID: 32268
    Host:       compute333.bc4.acrc.priv
    PSIDATADIR: /mnt/storage/home/zw18965/.conda/envs/p4env/share/psi4
    Memory:     500.0 MiB
    Threads:    28
    
  ==> Input File <==

--------------------------------------------------------------------------
memory 144 GB

molecule {
0 1
Au       0.000000    0.000000    0.019034 
H        0.000000    0.000000   -1.503691 
 }

set dynamic_level 1
set basis Def2-TZVPPD
set full_hess_every 10

optimize("GAM")
frequencies("GAM")
--------------------------------------------------------------------------

  Memory set to 134.110 GiB by Python driver.

Scratch directory: /tmp/
gradient() will perform analytic gradient computation.

*** tstart() called on compute333.bc4.acrc.priv
*** at Fri Nov  5 12:26:27 2021

   => Loading Basis Set <=

    Name: DEF2-TZVPPD
    Role: ORBITAL
    Keyword: BASIS
    atoms 1 entry AU         line  2995 (ECP: line  4084) file /mnt/storage/home/zw18965/.conda/envs/p4env/share/psi4/basis/def2-tzvppd.gbs 
    atoms 2 entry H          line    14 file /mnt/storage/home/zw18965/.conda/envs/p4env/share/psi4/basis/def2-tzvppd.gbs 

    !!!  WARNING: ECP capability is in beta. Please check occupations closely.  !!!


         ---------------------------------------------------------
                                   SCF
               by Justin Turney, Rob Parrish, Andy Simmonett
                          and Daniel G. A. Smith
                              RKS Reference
                       28 Threads, 137329 MiB Core
         ---------------------------------------------------------

  ==> Geometry <==

    Molecular point group: c2v
    Full point group: C_inf_v

    Geometry (in Angstrom), charge = 0, multiplicity = 1:

       Center              X                  Y                   Z               Mass       
    ------------   -----------------  -----------------  -----------------  -----------------
         AU           0.000000000000     0.000000000000     0.007751711434   196.966568790000
         H            0.000000000000     0.000000000000    -1.514973288566     1.007825032230

  Running in c2v symmetry.

  Rotational constants: A = ************  B =      7.25078  C =      7.25078 [cm^-1]
  Rotational constants: A = ************  B = 217373.00272  C = 217373.00272 [MHz]
  Nuclear repulsion =    6.602877737431250

  Charge       = 0
  Multiplicity = 1
  Electrons    = 20
  Nalpha       = 10
  Nbeta        = 10

  ==> Algorithm <==

  SCF Algorithm Type is DF.
  DIIS enabled.
  MOM disabled.
  Fractional occupation disabled.
  Guess Type is SAD.
  Energy threshold   = 1.00e-08
  Density threshold  = 1.00e-08
  Integral threshold = 1.00e-12

  ==> Primary Basis <==

  Basis Set: DEF2-TZVPPD
    Blend: DEF2-TZVPPD
    Number of shells: 24
    Number of basis functions: 76
    Number of Cartesian functions: 92
    Spherical Harmonics?: true
    Max angular momentum: 4

  Core potential: DEF2-TZVPPD
    Number of shells: 4
    Number of ECP primitives: 14
    Number of ECP core electrons: 60
    Max angular momentum: 3

  ==> DFT Potential <==

   => Composite Functional: GAM <= 

   GAM GGA Minessota Exchange-Correlation Functional

    H.S. Yu, et al., Phys. Chem. Chem. Phys. 17, 12146, 2015


    Deriv               =              1
    GGA                 =           TRUE
    Meta                =          FALSE

    Exchange Hybrid     =          FALSE
    MP2 Hybrid          =          FALSE

   => Exchange Functionals <=

    1.0000     XC_GGA_X_GAM

   => Correlation Functionals <=

    1.0000     XC_GGA_C_GAM

   => LibXC Density Thresholds  <==

    XC_GGA_C_GAM:  1.00E-14 
    XC_GGA_X_GAM:  1.00E-14 

   => Molecular Quadrature <=

    Radial Scheme          =       TREUTLER
    Pruning Scheme         =           NONE
    Nuclear Scheme         =       TREUTLER

    BS radius alpha        =              1
    Pruning alpha          =              1
    Radial Points          =             75
    Spherical Points       =            302
    Total Points           =          43494
    Total Blocks           =            399
    Max Points             =            255
    Max Functions          =             76
    Weights Tolerance      =       1.00E-15

   => Loading Basis Set <=

    Name: (DEF2-TZVPPD AUX)
    Role: JKFIT
    Keyword: DF_BASIS_SCF
    atoms 1 entry AU         line  8426 file /mnt/storage/home/zw18965/.conda/envs/p4env/share/psi4/basis/def2-universal-jkfit.gbs 
    atoms 2 entry H          line    18 file /mnt/storage/home/zw18965/.conda/envs/p4env/share/psi4/basis/def2-universal-jkfit.gbs 

  ==> Integral Setup <==

  DFHelper Memory: AOs need 0.015 GiB; user supplied 100.494 GiB. Using in-core AOs.

  ==> MemDFJK: Density-Fitted J/K Matrices <==

    J tasked:                   Yes
    K tasked:                    No
    wK tasked:                   No
    OpenMP threads:              28
    Memory [MiB]:            102905
    Algorithm:                 Core
    Schwarz Cutoff:           1E-12
    Mask sparsity (%):       0.0000
    Fitting Condition:        1E-10

   => Auxiliary Basis Set <=

  Basis Set: (DEF2-TZVPPD AUX)
    Blend: DEF2-UNIVERSAL-JKFIT
    Number of shells: 57
    Number of basis functions: 265
    Number of Cartesian functions: 385
    Spherical Harmonics?: true
    Max angular momentum: 6

  Cached 100.0% of DFT collocation blocks in 0.089 [GiB].

  Minimum eigenvalue in the overlap matrix is 2.3708957648E-03.
  Reciprocal condition number of the overlap matrix is 5.2732012828E-04.
    Using symmetric orthogonalization.

  ==> Pre-Iterations <==

  SCF Guess: Superposition of Atomic Densities via on-the-fly atomic UHF (no occupation information).

   -------------------------
    Irrep   Nso     Nmo    
   -------------------------
     A1        32      32 
     A2         8       8 
     B1        18      18 
     B2        18      18 
   -------------------------
    Total      76      76
   -------------------------

  ==> Iterations <==

                           Total Energy        Delta E     RMS |[F,P]|

   @DF-RKS iter SAD:  -136.52543831697815   -1.36525e+02   0.00000e+00 
   @DF-RKS iter   1:  -136.76499941884515   -2.39561e-01   9.17897e-03 DIIS
   @DF-RKS iter   2:  -136.58147180310101    1.83528e-01   1.87236e-02 DIIS
   @DF-RKS iter   3:  -136.82785902346473   -2.46387e-01   1.39741e-03 DIIS
   @DF-RKS iter   4:  -136.82831124156010   -4.52218e-04   1.16184e-03 DIIS
   @DF-RKS iter   5:  -136.82927649204908   -9.65250e-04   8.73100e-05 DIIS
   @DF-RKS iter   6:  -136.82928162712176   -5.13507e-06   3.99831e-05 DIIS
   @DF-RKS iter   7:  -136.82928348479729   -1.85768e-06   3.27451e-06 DIIS
   @DF-RKS iter   8:  -136.82928349210596   -7.30867e-09   1.92685e-07 DIIS
   @DF-RKS iter   9:  -136.82928349213537   -2.94165e-11   1.66973e-08 DIIS
   @DF-RKS iter  10:  -136.82928349213546   -8.52651e-14   1.84497e-09 DIIS
  Energy and wave function converged.


  ==> Post-Iterations <==

   Electrons on quadrature grid:
      Ntotal   =   19.9999996012 ; deviation = -3.988e-07 

    Orbital Energies [Eh]
    ---------------------

    Doubly Occupied:                                                      

       1A1    -4.021824     2A1    -2.253877     1B2    -2.231473  
       1B1    -2.231473     3A1    -0.388651     2B2    -0.285031  
       2B1    -0.285031     4A1    -0.265425     1A2    -0.265425  
       5A1    -0.230497  

    Virtual:                                                              

       6A1    -0.111852     3B1    -0.022476     3B2    -0.022476  
       7A1     0.072160     8A1     0.090669     4B1     0.163201  
       4B2     0.163201     9A1     0.167587     5B1     0.194768  
       5B2     0.194768     2A2     0.274416    10A1     0.274416  
      11A1     0.353381     6B1     0.371040     6B2     0.371040  
      12A1     0.404823    13A1     0.432832     7B2     0.767820  
       7B1     0.767820    14A1     0.935988     8B2     1.018320  
       8B1     1.018320    15A1     1.070506     3A2     1.070508  
       9B1     1.089002     9B2     1.089002    16A1     1.154295  
      10B2     1.252303    10B1     1.252303    17A1     1.380215  
      18A1     1.420504     4A2     1.420504    11B2     1.544136  
      11B1     1.544136    19A1     1.906703    20A1     2.203248  
      21A1     2.481623    22A1     3.073707     5A2     3.073771  
      12B2     3.227470    12B1     3.227470    23A1     3.425487  
      13B1     3.440887    13B2     3.440887    24A1     3.499903  
       6A2     3.499913    14B2     3.527856    14B1     3.527856  
      25A1     3.720298    15B2     3.779180    15B1     3.779180  
      16B1     3.997610    16B2     3.997610     7A2     4.007887  
      26A1     4.007887    27A1     4.062197     8A2     4.062201  
      28A1     4.440594    17B2     4.679207    17B1     4.679207  
      29A1     5.417227    18B2    27.343909    18B1    27.343909  
      30A1    29.796521    31A1    44.349807    32A1   205.171940  

    Final Occupation by Irrep:
             A1    A2    B1    B2 
    DOCC [     5,    1,    2,    2 ]

  @DF-RKS Final Energy:  -136.82928349213546

   => Energetics <=

    Nuclear Repulsion Energy =              6.6028777374312497
    One-Electron Energy =                -252.4928585374621548
    Two-Electron Energy =                 122.7945639875552644
    DFT Exchange-Correlation Energy =     -13.7338666796598083
    Empirical Dispersion Energy =           0.0000000000000000
    VV10 Nonlocal Energy =                  0.0000000000000000
    Total Energy =                       -136.8292834921354597

Computation Completed


Properties will be evaluated at   0.000000,   0.000000,   0.000000 [a0]

Properties computed using the SCF density matrix

  Nuclear Dipole Moment: [e a0]
     X:     0.0000      Y:     0.0000      Z:    -2.5846

  Electronic Dipole Moment: [e a0]
     X:     0.0000      Y:     0.0000      Z:     3.0917

  Dipole Moment: [e a0]
     X:     0.0000      Y:     0.0000      Z:     0.5072     Total:     0.5072

  Dipole Moment: [D]
     X:     0.0000      Y:     0.0000      Z:     1.2891     Total:     1.2891


*** tstop() called on compute333.bc4.acrc.priv at Fri Nov  5 12:27:30 2021
Module time:
	user time   =     698.79 seconds =      11.65 minutes
	system time =      30.07 seconds =       0.50 minutes
	total time  =         63 seconds =       1.05 minutes
Total time:
	user time   =     698.79 seconds =      11.65 minutes
	system time =      30.07 seconds =       0.50 minutes
	total time  =         63 seconds =       1.05 minutes

*** tstart() called on compute333.bc4.acrc.priv
*** at Fri Nov  5 12:27:30 2021


         ------------------------------------------------------------
                                   SCF GRAD                          
                          Rob Parrish, Justin Turney,                
                       Andy Simmonett, and Alex Sokolov              
         ------------------------------------------------------------

  ==> Geometry <==

    Molecular point group: c2v
    Full point group: C_inf_v

    Geometry (in Angstrom), charge = 0, multiplicity = 1:

       Center              X                  Y                   Z               Mass       
    ------------   -----------------  -----------------  -----------------  -----------------
         AU           0.000000000000     0.000000000000     0.007751711434   196.966568790000
         H            0.000000000000     0.000000000000    -1.514973288566     1.007825032230

  Nuclear repulsion =    6.602877737431250

  ==> Basis Set <==

  Basis Set: DEF2-TZVPPD
    Blend: DEF2-TZVPPD
    Number of shells: 24
    Number of basis functions: 76
    Number of Cartesian functions: 92
    Spherical Harmonics?: true
    Max angular momentum: 4

  Core potential: DEF2-TZVPPD
    Number of shells: 4
    Number of ECP primitives: 14
    Number of ECP core electrons: 60
    Max angular momentum: 3

  ==> DFJKGrad: Density-Fitted SCF Gradients <==

    Gradient:                    1
    J tasked:                  Yes
    K tasked:                   No
    wK tasked:                  No
    OpenMP threads:             28
    Integrals threads:          28
    Memory [MiB]:           102996
    Schwarz Cutoff:          1E-12
    Fitting Condition:       1E-10

   => Auxiliary Basis Set <=

  Basis Set: (DEF2-TZVPPD AUX)
    Blend: DEF2-UNIVERSAL-JKFIT
    Number of shells: 57
    Number of basis functions: 265
    Number of Cartesian functions: 385
    Spherical Harmonics?: true
    Max angular momentum: 6

  ==> DFT Potential <==

   => Composite Functional: GAM <= 

   GAM GGA Minessota Exchange-Correlation Functional

    H.S. Yu, et al., Phys. Chem. Chem. Phys. 17, 12146, 2015


    Deriv               =              1
    GGA                 =           TRUE
    Meta                =          FALSE

    Exchange Hybrid     =          FALSE
    MP2 Hybrid          =          FALSE

   => Exchange Functionals <=

    1.0000     XC_GGA_X_GAM

   => Correlation Functionals <=

    1.0000     XC_GGA_C_GAM

   => LibXC Density Thresholds  <==

    XC_GGA_C_GAM:  1.00E-14 
    XC_GGA_X_GAM:  1.00E-14 

   => Molecular Quadrature <=

    Radial Scheme          =       TREUTLER
    Pruning Scheme         =           NONE
    Nuclear Scheme         =       TREUTLER

    BS radius alpha        =              1
    Pruning alpha          =              1
    Radial Points          =             75
    Spherical Points       =            302
    Total Points           =          43494
    Total Blocks           =            399
    Max Points             =            255
    Max Functions          =             76
    Weights Tolerance      =       1.00E-15


  -Total Gradient:
     Atom            X                  Y                   Z
    ------   -----------------  -----------------  -----------------
       1       -0.000000000000     0.000000000000    -0.068594710470
       2        0.000000000000     0.000000000000     0.071535463249


*** tstop() called on compute333.bc4.acrc.priv at Fri Nov  5 12:27:49 2021
Module time:
	user time   =     109.73 seconds =       1.83 minutes
	system time =       7.28 seconds =       0.12 minutes
	total time  =         19 seconds =       0.32 minutes
Total time:
	user time   =     808.54 seconds =      13.48 minutes
	system time =      37.35 seconds =       0.62 minutes
	total time  =         82 seconds =       1.37 minutes


  ==> Adding ECP gradient terms (computed numerically) <==

  -ECP Gradient:
     Atom            X                  Y                   Z
    ------   -----------------  -----------------  -----------------
       1        0.000000000000    -0.000000000000     0.063031521217
       2        0.000000000000    -0.000000000000    -0.063031521173


  -Total Gradient:
     Atom            X                  Y                   Z
    ------   -----------------  -----------------  -----------------
       1       -0.000000000000    -0.000000000000    -0.005563189253
       2        0.000000000000    -0.000000000000     0.008503942076

hessian() using ref_gradient to assess stationary point.

  Based on options and gradient (rms=4.15E-03), recommend projecting translations and projecting rotations.
hessian() will perform frequency computation by finite difference of analytic gradients.

         ----------------------------------------------------------
                                   FINDIF
                     R. A. King and Jonathon Misiewicz
         ---------------------------------------------------------

  Using finite-differences of gradients to determine vibrational frequencies and 
  normal modes. Resulting frequencies are only valid at stationary points.
    Generating geometries for use with 3-point formula.
    Displacement size will be 5.00e-03.
    Number of atoms is 2.
    Number of irreps is 4.
    Number of SALCs is 1.
    Translations projected? 1. Rotations projected? 1.
    Index of SALCs per irrep:
     1 :  0 
     2 : 
     3 : 
     4 : 
    Number of SALCs per irrep:
     Irrep 1: 1
     Irrep 2: 0
     Irrep 3: 0
     Irrep 4: 0
    Number of geometries (including reference) is 3.
    Number of displacements per irrep:
      Irrep 1: 2
      Irrep 2: 0
      Irrep 3: 0
      Irrep 4: 0

  //>>>>>>>>>>>>>>>>>>>>>>>>>>>>>>>>>>>//
  //    Loading displacement 1 of 3    //
  //<<<<<<<<<<<<<<<<<<<<<<<<<<<<<<<<<<<//

Scratch directory: /tmp/
gradient() will perform analytic gradient computation.

*** tstart() called on compute333.bc4.acrc.priv
*** at Fri Nov  5 12:29:06 2021

   => Loading Basis Set <=

    Name: DEF2-TZVPPD
    Role: ORBITAL
    Keyword: BASIS
    atoms 1 entry AU         line  2995 (ECP: line  4084) file /mnt/storage/home/zw18965/.conda/envs/p4env/share/psi4/basis/def2-tzvppd.gbs 
    atoms 2 entry H          line    14 file /mnt/storage/home/zw18965/.conda/envs/p4env/share/psi4/basis/def2-tzvppd.gbs 

    !!!  WARNING: ECP capability is in beta. Please check occupations closely.  !!!


         ---------------------------------------------------------
                                   SCF
               by Justin Turney, Rob Parrish, Andy Simmonett
                          and Daniel G. A. Smith
                              RKS Reference
                       28 Threads, 137329 MiB Core
         ---------------------------------------------------------

  ==> Geometry <==

    Molecular point group: c2v
    Full point group: C_inf_v

    Geometry (in Angstrom), charge = 0, multiplicity = 1:

       Center              X                  Y                   Z               Mass       
    ------------   -----------------  -----------------  -----------------  -----------------
         AU           0.000000000000     0.000000000000     0.007751711434   196.966568790000
         H            0.000000000000     0.000000000000    -1.514973288566     1.007825032230

  Running in c2v symmetry.

  Rotational constants: A = ************  B =      7.25078  C =      7.25078 [cm^-1]
  Rotational constants: A = ************  B = 217373.00272  C = 217373.00272 [MHz]
  Nuclear repulsion =    6.602877737431250

  Charge       = 0
  Multiplicity = 1
  Electrons    = 20
  Nalpha       = 10
  Nbeta        = 10

  ==> Algorithm <==

  SCF Algorithm Type is DF.
  DIIS enabled.
  MOM disabled.
  Fractional occupation disabled.
  Guess Type is SAD.
  Energy threshold   = 1.00e-08
  Density threshold  = 1.00e-08
  Integral threshold = 1.00e-12

  ==> Primary Basis <==

  Basis Set: DEF2-TZVPPD
    Blend: DEF2-TZVPPD
    Number of shells: 24
    Number of basis functions: 76
    Number of Cartesian functions: 92
    Spherical Harmonics?: true
    Max angular momentum: 4

  Core potential: DEF2-TZVPPD
    Number of shells: 4
    Number of ECP primitives: 14
    Number of ECP core electrons: 60
    Max angular momentum: 3

  ==> DFT Potential <==

   => Composite Functional: GAM <= 

   GAM GGA Minessota Exchange-Correlation Functional

    H.S. Yu, et al., Phys. Chem. Chem. Phys. 17, 12146, 2015


    Deriv               =              1
    GGA                 =           TRUE
    Meta                =          FALSE

    Exchange Hybrid     =          FALSE
    MP2 Hybrid          =          FALSE

   => Exchange Functionals <=

    1.0000     XC_GGA_X_GAM

   => Correlation Functionals <=

    1.0000     XC_GGA_C_GAM

   => LibXC Density Thresholds  <==

    XC_GGA_C_GAM:  1.00E-14 
    XC_GGA_X_GAM:  1.00E-14 

   => Molecular Quadrature <=

    Radial Scheme          =       TREUTLER
    Pruning Scheme         =           NONE
    Nuclear Scheme         =       TREUTLER

    BS radius alpha        =              1
    Pruning alpha          =              1
    Radial Points          =             75
    Spherical Points       =            302
    Total Points           =          43494
    Total Blocks           =            399
    Max Points             =            255
    Max Functions          =             76
    Weights Tolerance      =       1.00E-15

   => Loading Basis Set <=

    Name: (DEF2-TZVPPD AUX)
    Role: JKFIT
    Keyword: DF_BASIS_SCF
    atoms 1 entry AU         line  8426 file /mnt/storage/home/zw18965/.conda/envs/p4env/share/psi4/basis/def2-universal-jkfit.gbs 
    atoms 2 entry H          line    18 file /mnt/storage/home/zw18965/.conda/envs/p4env/share/psi4/basis/def2-universal-jkfit.gbs 

  ==> Integral Setup <==

  DFHelper Memory: AOs need 0.015 GiB; user supplied 100.494 GiB. Using in-core AOs.

  ==> MemDFJK: Density-Fitted J/K Matrices <==

    J tasked:                   Yes
    K tasked:                    No
    wK tasked:                   No
    OpenMP threads:              28
    Memory [MiB]:            102905
    Algorithm:                 Core
    Schwarz Cutoff:           1E-12
    Mask sparsity (%):       0.0000
    Fitting Condition:        1E-10

   => Auxiliary Basis Set <=

  Basis Set: (DEF2-TZVPPD AUX)
    Blend: DEF2-UNIVERSAL-JKFIT
    Number of shells: 57
    Number of basis functions: 265
    Number of Cartesian functions: 385
    Spherical Harmonics?: true
    Max angular momentum: 6

  Cached 100.0% of DFT collocation blocks in 0.089 [GiB].

  Minimum eigenvalue in the overlap matrix is 2.3708957648E-03.
  Reciprocal condition number of the overlap matrix is 5.2732012828E-04.
    Using symmetric orthogonalization.

  ==> Pre-Iterations <==

  SCF Guess: Superposition of Atomic Densities via on-the-fly atomic UHF (no occupation information).

   -------------------------
    Irrep   Nso     Nmo    
   -------------------------
     A1        32      32 
     A2         8       8 
     B1        18      18 
     B2        18      18 
   -------------------------
    Total      76      76
   -------------------------

  ==> Iterations <==

                           Total Energy        Delta E     RMS |[F,P]|

   @DF-RKS iter SAD:  -136.52551191863088   -1.36526e+02   0.00000e+00 
   @DF-RKS iter   1:  -136.76500796338655   -2.39496e-01   9.17858e-03 DIIS
   @DF-RKS iter   2:  -136.58151438708188    1.83494e-01   1.87224e-02 DIIS
   @DF-RKS iter   3:  -136.82786001707956   -2.46346e-01   1.39682e-03 DIIS
   @DF-RKS iter   4:  -136.82831141500623   -4.51398e-04   1.16173e-03 DIIS
   @DF-RKS iter   5:  -136.82927650749832   -9.65092e-04   8.72436e-05 DIIS
   @DF-RKS iter   6:  -136.82928162966448   -5.12217e-06   3.99554e-05 DIIS
   @DF-RKS iter   7:  -136.82928348480476   -1.85514e-06   3.27255e-06 DIIS
   @DF-RKS iter   8:  -136.82928349210590   -7.30114e-09   1.92736e-07 DIIS
   @DF-RKS iter   9:  -136.82928349213535   -2.94449e-11   1.66909e-08 DIIS
   @DF-RKS iter  10:  -136.82928349213543   -8.52651e-14   1.84512e-09 DIIS
  Energy and wave function converged.


  ==> Post-Iterations <==

   Electrons on quadrature grid:
      Ntotal   =   19.9999996012 ; deviation = -3.988e-07 

    Orbital Energies [Eh]
    ---------------------

    Doubly Occupied:                                                      

       1A1    -4.021824     2A1    -2.253877     1B2    -2.231473  
       1B1    -2.231473     3A1    -0.388651     2B2    -0.285031  
       2B1    -0.285031     4A1    -0.265425     1A2    -0.265425  
       5A1    -0.230497  

    Virtual:                                                              

       6A1    -0.111852     3B1    -0.022476     3B2    -0.022476  
       7A1     0.072160     8A1     0.090669     4B1     0.163201  
       4B2     0.163201     9A1     0.167587     5B1     0.194768  
       5B2     0.194768     2A2     0.274416    10A1     0.274416  
      11A1     0.353381     6B1     0.371040     6B2     0.371040  
      12A1     0.404823    13A1     0.432832     7B2     0.767820  
       7B1     0.767820    14A1     0.935988     8B2     1.018320  
       8B1     1.018320    15A1     1.070506     3A2     1.070508  
       9B1     1.089002     9B2     1.089002    16A1     1.154295  
      10B2     1.252303    10B1     1.252303    17A1     1.380215  
      18A1     1.420504     4A2     1.420504    11B2     1.544136  
      11B1     1.544136    19A1     1.906703    20A1     2.203248  
      21A1     2.481623    22A1     3.073707     5A2     3.073771  
      12B2     3.227470    12B1     3.227470    23A1     3.425487  
      13B1     3.440887    13B2     3.440887    24A1     3.499903  
       6A2     3.499913    14B2     3.527856    14B1     3.527856  
      25A1     3.720298    15B2     3.779180    15B1     3.779180  
      16B1     3.997610    16B2     3.997610     7A2     4.007887  
      26A1     4.007887    27A1     4.062197     8A2     4.062201  
      28A1     4.440594    17B2     4.679207    17B1     4.679207  
      29A1     5.417227    18B2    27.343909    18B1    27.343909  
      30A1    29.796521    31A1    44.349807    32A1   205.171940  

    Final Occupation by Irrep:
             A1    A2    B1    B2 
    DOCC [     5,    1,    2,    2 ]

  @DF-RKS Final Energy:  -136.82928349213543

   => Energetics <=

    Nuclear Repulsion Energy =              6.6028777374312497
    One-Electron Energy =                -252.4928585372429097
    Two-Electron Energy =                 122.7945639873110224
    DFT Exchange-Correlation Energy =     -13.7338666796347901
    Empirical Dispersion Energy =           0.0000000000000000
    VV10 Nonlocal Energy =                  0.0000000000000000
    Total Energy =                       -136.8292834921354313

Computation Completed


Properties will be evaluated at   0.000000,   0.000000,   0.000000 [a0]

Properties computed using the SCF density matrix

  Nuclear Dipole Moment: [e a0]
     X:     0.0000      Y:     0.0000      Z:    -2.5846

  Electronic Dipole Moment: [e a0]
     X:     0.0000      Y:     0.0000      Z:     3.0917

  Dipole Moment: [e a0]
     X:     0.0000      Y:     0.0000      Z:     0.5072     Total:     0.5072

  Dipole Moment: [D]
     X:     0.0000      Y:     0.0000      Z:     1.2891     Total:     1.2891


*** tstop() called on compute333.bc4.acrc.priv at Fri Nov  5 12:29:46 2021
Module time:
	user time   =     452.17 seconds =       7.54 minutes
	system time =      13.65 seconds =       0.23 minutes
	total time  =         40 seconds =       0.67 minutes
Total time:
	user time   =    1383.15 seconds =      23.05 minutes
	system time =      53.11 seconds =       0.89 minutes
	total time  =        199 seconds =       3.32 minutes

*** tstart() called on compute333.bc4.acrc.priv
*** at Fri Nov  5 12:29:46 2021


         ------------------------------------------------------------
                                   SCF GRAD                          
                          Rob Parrish, Justin Turney,                
                       Andy Simmonett, and Alex Sokolov              
         ------------------------------------------------------------

  ==> Geometry <==

    Molecular point group: c2v
    Full point group: C_inf_v

    Geometry (in Angstrom), charge = 0, multiplicity = 1:

       Center              X                  Y                   Z               Mass       
    ------------   -----------------  -----------------  -----------------  -----------------
         AU           0.000000000000     0.000000000000     0.007751711434   196.966568790000
         H            0.000000000000     0.000000000000    -1.514973288566     1.007825032230

  Nuclear repulsion =    6.602877737431250

  ==> Basis Set <==

  Basis Set: DEF2-TZVPPD
    Blend: DEF2-TZVPPD
    Number of shells: 24
    Number of basis functions: 76
    Number of Cartesian functions: 92
    Spherical Harmonics?: true
    Max angular momentum: 4

  Core potential: DEF2-TZVPPD
    Number of shells: 4
    Number of ECP primitives: 14
    Number of ECP core electrons: 60
    Max angular momentum: 3

  ==> DFJKGrad: Density-Fitted SCF Gradients <==

    Gradient:                    1
    J tasked:                  Yes
    K tasked:                   No
    wK tasked:                  No
    OpenMP threads:             28
    Integrals threads:          28
    Memory [MiB]:           102996
    Schwarz Cutoff:          1E-12
    Fitting Condition:       1E-10

   => Auxiliary Basis Set <=

  Basis Set: (DEF2-TZVPPD AUX)
    Blend: DEF2-UNIVERSAL-JKFIT
    Number of shells: 57
    Number of basis functions: 265
    Number of Cartesian functions: 385
    Spherical Harmonics?: true
    Max angular momentum: 6

  ==> DFT Potential <==

   => Composite Functional: GAM <= 

   GAM GGA Minessota Exchange-Correlation Functional

    H.S. Yu, et al., Phys. Chem. Chem. Phys. 17, 12146, 2015


    Deriv               =              1
    GGA                 =           TRUE
    Meta                =          FALSE

    Exchange Hybrid     =          FALSE
    MP2 Hybrid          =          FALSE

   => Exchange Functionals <=

    1.0000     XC_GGA_X_GAM

   => Correlation Functionals <=

    1.0000     XC_GGA_C_GAM

   => LibXC Density Thresholds  <==

    XC_GGA_C_GAM:  1.00E-14 
    XC_GGA_X_GAM:  1.00E-14 

   => Molecular Quadrature <=

    Radial Scheme          =       TREUTLER
    Pruning Scheme         =           NONE
    Nuclear Scheme         =       TREUTLER

    BS radius alpha        =              1
    Pruning alpha          =              1
    Radial Points          =             75
    Spherical Points       =            302
    Total Points           =          43494
    Total Blocks           =            399
    Max Points             =            255
    Max Functions          =             76
    Weights Tolerance      =       1.00E-15


  -Total Gradient:
     Atom            X                  Y                   Z
    ------   -----------------  -----------------  -----------------
       1       -0.000000000000     0.000000000000    -0.068594713629
       2        0.000000000000     0.000000000000     0.071535466408


*** tstop() called on compute333.bc4.acrc.priv at Fri Nov  5 12:30:00 2021
Module time:
	user time   =      76.55 seconds =       1.28 minutes
	system time =       2.42 seconds =       0.04 minutes
	total time  =         14 seconds =       0.23 minutes
Total time:
	user time   =    1459.73 seconds =      24.33 minutes
	system time =      55.53 seconds =       0.93 minutes
	total time  =        213 seconds =       3.55 minutes


  ==> Adding ECP gradient terms (computed numerically) <==

  -ECP Gradient:
     Atom            X                  Y                   Z
    ------   -----------------  -----------------  -----------------
       1        0.000000000000     0.000000000000     0.063031522212
       2        0.000000000000     0.000000000000    -0.063031522212


  -Total Gradient:
     Atom            X                  Y                   Z
    ------   -----------------  -----------------  -----------------
       1        0.000000000000     0.000000000000    -0.005563191417
       2        0.000000000000     0.000000000000     0.008503944196


  //>>>>>>>>>>>>>>>>>>>>>>>>>>>>>>>>>>>//
  //    Loading displacement 2 of 3    //
  //<<<<<<<<<<<<<<<<<<<<<<<<<<<<<<<<<<<//

Scratch directory: /tmp/
gradient() will perform analytic gradient computation.

*** tstart() called on compute333.bc4.acrc.priv
*** at Fri Nov  5 12:31:15 2021

   => Loading Basis Set <=

    Name: DEF2-TZVPPD
    Role: ORBITAL
    Keyword: BASIS
    atoms 1 entry AU         line  2995 (ECP: line  4084) file /mnt/storage/home/zw18965/.conda/envs/p4env/share/psi4/basis/def2-tzvppd.gbs 
    atoms 2 entry H          line    14 file /mnt/storage/home/zw18965/.conda/envs/p4env/share/psi4/basis/def2-tzvppd.gbs 

    !!!  WARNING: ECP capability is in beta. Please check occupations closely.  !!!


         ---------------------------------------------------------
                                   SCF
               by Justin Turney, Rob Parrish, Andy Simmonett
                          and Daniel G. A. Smith
                              RKS Reference
                       28 Threads, 137329 MiB Core
         ---------------------------------------------------------

  ==> Geometry <==

    Molecular point group: c2v
    Full point group: C_inf_v

    Geometry (in Angstrom), charge = 0, multiplicity = 1:

       Center              X                  Y                   Z               Mass       
    ------------   -----------------  -----------------  -----------------  -----------------
         AU           0.000000000000     0.000000000000     0.007738260175   196.966568790000
         H            0.000000000000     0.000000000000    -1.512344411272     1.007825032230

  Running in c2v symmetry.

  Rotational constants: A = ************  B =      7.27601  C =      7.27601 [cm^-1]
  Rotational constants: A = ************  B = 218129.36961  C = 218129.36961 [MHz]
  Nuclear repulsion =    6.614355384472962

  Charge       = 0
  Multiplicity = 1
  Electrons    = 20
  Nalpha       = 10
  Nbeta        = 10

  ==> Algorithm <==

  SCF Algorithm Type is DF.
  DIIS enabled.
  MOM disabled.
  Fractional occupation disabled.
  Guess Type is SAD.
  Energy threshold   = 1.00e-08
  Density threshold  = 1.00e-08
  Integral threshold = 1.00e-12

  ==> Primary Basis <==

  Basis Set: DEF2-TZVPPD
    Blend: DEF2-TZVPPD
    Number of shells: 24
    Number of basis functions: 76
    Number of Cartesian functions: 92
    Spherical Harmonics?: true
    Max angular momentum: 4

  Core potential: DEF2-TZVPPD
    Number of shells: 4
    Number of ECP primitives: 14
    Number of ECP core electrons: 60
    Max angular momentum: 3

  ==> DFT Potential <==

   => Composite Functional: GAM <= 

   GAM GGA Minessota Exchange-Correlation Functional

    H.S. Yu, et al., Phys. Chem. Chem. Phys. 17, 12146, 2015


    Deriv               =              1
    GGA                 =           TRUE
    Meta                =          FALSE

    Exchange Hybrid     =          FALSE
    MP2 Hybrid          =          FALSE

   => Exchange Functionals <=

    1.0000     XC_GGA_X_GAM

   => Correlation Functionals <=

    1.0000     XC_GGA_C_GAM

   => LibXC Density Thresholds  <==

    XC_GGA_C_GAM:  1.00E-14 
    XC_GGA_X_GAM:  1.00E-14 

   => Molecular Quadrature <=

    Radial Scheme          =       TREUTLER
    Pruning Scheme         =           NONE
    Nuclear Scheme         =       TREUTLER

    BS radius alpha        =              1
    Pruning alpha          =              1
    Radial Points          =             75
    Spherical Points       =            302
    Total Points           =          43494
    Total Blocks           =            400
    Max Points             =            255
    Max Functions          =             76
    Weights Tolerance      =       1.00E-15

   => Loading Basis Set <=

    Name: (DEF2-TZVPPD AUX)
    Role: JKFIT
    Keyword: DF_BASIS_SCF
    atoms 1 entry AU         line  8426 file /mnt/storage/home/zw18965/.conda/envs/p4env/share/psi4/basis/def2-universal-jkfit.gbs 
    atoms 2 entry H          line    18 file /mnt/storage/home/zw18965/.conda/envs/p4env/share/psi4/basis/def2-universal-jkfit.gbs 

  ==> Integral Setup <==

  DFHelper Memory: AOs need 0.015 GiB; user supplied 100.494 GiB. Using in-core AOs.

  ==> MemDFJK: Density-Fitted J/K Matrices <==

    J tasked:                   Yes
    K tasked:                    No
    wK tasked:                   No
    OpenMP threads:              28
    Memory [MiB]:            102905
    Algorithm:                 Core
    Schwarz Cutoff:           1E-12
    Mask sparsity (%):       0.0000
    Fitting Condition:        1E-10

   => Auxiliary Basis Set <=

  Basis Set: (DEF2-TZVPPD AUX)
    Blend: DEF2-UNIVERSAL-JKFIT
    Number of shells: 57
    Number of basis functions: 265
    Number of Cartesian functions: 385
    Spherical Harmonics?: true
    Max angular momentum: 6

  Cached 100.0% of DFT collocation blocks in 0.089 [GiB].

  Minimum eigenvalue in the overlap matrix is 2.3470183351E-03.
  Reciprocal condition number of the overlap matrix is 5.2176761682E-04.
    Using symmetric orthogonalization.

  ==> Pre-Iterations <==

  SCF Guess: Superposition of Atomic Densities via on-the-fly atomic UHF (no occupation information).

   -------------------------
    Irrep   Nso     Nmo    
   -------------------------
     A1        32      32 
     A2         8       8 
     B1        18      18 
     B2        18      18 
   -------------------------
    Total      76      76
   -------------------------

  ==> Iterations <==

                           Total Energy        Delta E     RMS |[F,P]|

   @DF-RKS iter SAD:  -136.52228811108935   -1.36522e+02   0.00000e+00 
   @DF-RKS iter   1:  -136.76424379509695   -2.41956e-01   9.21344e-03 DIIS
   @DF-RKS iter   2:  -136.57834732079277    1.85896e-01   1.88213e-02 DIIS
   @DF-RKS iter   3:  -136.82776545691956   -2.49418e-01   1.42703e-03 DIIS
   @DF-RKS iter   4:  -136.82825427932406   -4.88822e-04   1.17029e-03 DIIS
   @DF-RKS iter   5:  -136.82923080566070   -9.76526e-04   9.09721e-05 DIIS
   @DF-RKS iter   6:  -136.82923660470138   -5.79904e-06   4.12290e-05 DIIS
   @DF-RKS iter   7:  -136.82923857092470   -1.96622e-06   3.38223e-06 DIIS
   @DF-RKS iter   8:  -136.82923857870480   -7.78010e-09   1.93979e-07 DIIS
   @DF-RKS iter   9:  -136.82923857873399   -2.91891e-11   1.77308e-08 DIIS
   @DF-RKS iter  10:  -136.82923857873413   -1.42109e-13   1.88132e-09 DIIS
  Energy and wave function converged.


  ==> Post-Iterations <==

   Electrons on quadrature grid:
      Ntotal   =   19.9999996122 ; deviation = -3.878e-07 

    Orbital Energies [Eh]
    ---------------------

    Doubly Occupied:                                                      

       1A1    -4.021954     2A1    -2.254080     1B2    -2.231574  
       1B1    -2.231574     3A1    -0.389237     2B2    -0.285179  
       2B1    -0.285179     4A1    -0.265492     1A2    -0.265492  
       5A1    -0.230488  

    Virtual:                                                              

       6A1    -0.111657     3B1    -0.022490     3B2    -0.022490  
       7A1     0.072109     8A1     0.090855     4B2     0.163231  
       4B1     0.163231     9A1     0.167678     5B2     0.194823  
       5B1     0.194823     2A2     0.274401    10A1     0.274401  
      11A1     0.353627     6B2     0.371139     6B1     0.371139  
      12A1     0.404769    13A1     0.433218     7B1     0.767846  
       7B2     0.767846    14A1     0.936402     8B2     1.018398  
       8B1     1.018398    15A1     1.070408     3A2     1.070409  
       9B2     1.088966     9B1     1.088966    16A1     1.154529  
      10B2     1.252838    10B1     1.252838    17A1     1.380848  
      18A1     1.420453     4A2     1.420453    11B2     1.544733  
      11B1     1.544733    19A1     1.908901    20A1     2.202604  
      21A1     2.480951    22A1     3.073373     5A2     3.073435  
      12B1     3.228070    12B2     3.228070    23A1     3.425032  
      13B2     3.440816    13B1     3.440816    24A1     3.499810  
       6A2     3.499820    14B2     3.527119    14B1     3.527119  
      25A1     3.722240    15B1     3.779892    15B2     3.779892  
      16B1     3.997520    16B2     3.997520     7A2     4.007832  
      26A1     4.007832    27A1     4.063378     8A2     4.063381  
      28A1     4.444754    17B2     4.684369    17B1     4.684369  
      29A1     5.418879    18B2    27.344396    18B1    27.344396  
      30A1    29.799607    31A1    44.353281    32A1   205.173320  

    Final Occupation by Irrep:
             A1    A2    B1    B2 
    DOCC [     5,    1,    2,    2 ]

  @DF-RKS Final Energy:  -136.82923857873413

   => Energetics <=

    Nuclear Repulsion Energy =              6.6143553844729617
    One-Electron Energy =                -252.5123978968102278
    Two-Electron Energy =                 122.8030844682267144
    DFT Exchange-Correlation Energy =     -13.7342805346235686
    Empirical Dispersion Energy =           0.0000000000000000
    VV10 Nonlocal Energy =                  0.0000000000000000
    Total Energy =                       -136.8292385787341345

Computation Completed


Properties will be evaluated at   0.000000,   0.000000,   0.000000 [a0]

Properties computed using the SCF density matrix

  Nuclear Dipole Moment: [e a0]
     X:     0.0000      Y:     0.0000      Z:    -2.5801

  Electronic Dipole Moment: [e a0]
     X:     0.0000      Y:     0.0000      Z:     3.0866

  Dipole Moment: [e a0]
     X:     0.0000      Y:     0.0000      Z:     0.5065     Total:     0.5065

  Dipole Moment: [D]
     X:     0.0000      Y:     0.0000      Z:     1.2875     Total:     1.2875


*** tstop() called on compute333.bc4.acrc.priv at Fri Nov  5 12:32:10 2021
Module time:
	user time   =     641.90 seconds =      10.70 minutes
	system time =      21.90 seconds =       0.36 minutes
	total time  =         55 seconds =       0.92 minutes
Total time:
	user time   =    2223.89 seconds =      37.06 minutes
	system time =      79.46 seconds =       1.32 minutes
	total time  =        343 seconds =       5.72 minutes

*** tstart() called on compute333.bc4.acrc.priv
*** at Fri Nov  5 12:32:10 2021


         ------------------------------------------------------------
                                   SCF GRAD                          
                          Rob Parrish, Justin Turney,                
                       Andy Simmonett, and Alex Sokolov              
         ------------------------------------------------------------

  ==> Geometry <==

    Molecular point group: c2v
    Full point group: C_inf_v

    Geometry (in Angstrom), charge = 0, multiplicity = 1:

       Center              X                  Y                   Z               Mass       
    ------------   -----------------  -----------------  -----------------  -----------------
         AU           0.000000000000     0.000000000000     0.007738260175   196.966568790000
         H            0.000000000000     0.000000000000    -1.512344411272     1.007825032230

  Nuclear repulsion =    6.614355384472962

  ==> Basis Set <==

  Basis Set: DEF2-TZVPPD
    Blend: DEF2-TZVPPD
    Number of shells: 24
    Number of basis functions: 76
    Number of Cartesian functions: 92
    Spherical Harmonics?: true
    Max angular momentum: 4

  Core potential: DEF2-TZVPPD
    Number of shells: 4
    Number of ECP primitives: 14
    Number of ECP core electrons: 60
    Max angular momentum: 3

  ==> DFJKGrad: Density-Fitted SCF Gradients <==

    Gradient:                    1
    J tasked:                  Yes
    K tasked:                   No
    wK tasked:                  No
    OpenMP threads:             28
    Integrals threads:          28
    Memory [MiB]:           102996
    Schwarz Cutoff:          1E-12
    Fitting Condition:       1E-10

   => Auxiliary Basis Set <=

  Basis Set: (DEF2-TZVPPD AUX)
    Blend: DEF2-UNIVERSAL-JKFIT
    Number of shells: 57
    Number of basis functions: 265
    Number of Cartesian functions: 385
    Spherical Harmonics?: true
    Max angular momentum: 6

  ==> DFT Potential <==

   => Composite Functional: GAM <= 

   GAM GGA Minessota Exchange-Correlation Functional

    H.S. Yu, et al., Phys. Chem. Chem. Phys. 17, 12146, 2015


    Deriv               =              1
    GGA                 =           TRUE
    Meta                =          FALSE

    Exchange Hybrid     =          FALSE
    MP2 Hybrid          =          FALSE

   => Exchange Functionals <=

    1.0000     XC_GGA_X_GAM

   => Correlation Functionals <=

    1.0000     XC_GGA_C_GAM

   => LibXC Density Thresholds  <==

    XC_GGA_C_GAM:  1.00E-14 
    XC_GGA_X_GAM:  1.00E-14 

   => Molecular Quadrature <=

    Radial Scheme          =       TREUTLER
    Pruning Scheme         =           NONE
    Nuclear Scheme         =       TREUTLER

    BS radius alpha        =              1
    Pruning alpha          =              1
    Radial Points          =             75
    Spherical Points       =            302
    Total Points           =          43494
    Total Blocks           =            400
    Max Points             =            255
    Max Functions          =             76
    Weights Tolerance      =       1.00E-15


  -Total Gradient:
     Atom            X                  Y                   Z
    ------   -----------------  -----------------  -----------------
       1       -0.000000000000     0.000000000000    -0.069792306025
       2        0.000000000000     0.000000000000     0.072730386812


*** tstop() called on compute333.bc4.acrc.priv at Fri Nov  5 12:32:24 2021
Module time:
	user time   =      85.97 seconds =       1.43 minutes
	system time =       2.57 seconds =       0.04 minutes
	total time  =         14 seconds =       0.23 minutes
Total time:
	user time   =    2309.89 seconds =      38.50 minutes
	system time =      82.03 seconds =       1.37 minutes
	total time  =        357 seconds =       5.95 minutes


  ==> Adding ECP gradient terms (computed numerically) <==

  -ECP Gradient:
     Atom            X                  Y                   Z
    ------   -----------------  -----------------  -----------------
       1       -0.000000000000     0.000000000000     0.063253209595
       2       -0.000000000000     0.000000000000    -0.063253209606


  -Total Gradient:
     Atom            X                  Y                   Z
    ------   -----------------  -----------------  -----------------
       1       -0.000000000000     0.000000000000    -0.006539096430
       2       -0.000000000000     0.000000000000     0.009477177206


  //>>>>>>>>>>>>>>>>>>>>>>>>>>>>>>>>>>>//
  //    Loading displacement 3 of 3    //
  //<<<<<<<<<<<<<<<<<<<<<<<<<<<<<<<<<<<//

Scratch directory: /tmp/
gradient() will perform analytic gradient computation.

*** tstart() called on compute333.bc4.acrc.priv
*** at Fri Nov  5 12:33:40 2021

   => Loading Basis Set <=

    Name: DEF2-TZVPPD
    Role: ORBITAL
    Keyword: BASIS
    atoms 1 entry AU         line  2995 (ECP: line  4084) file /mnt/storage/home/zw18965/.conda/envs/p4env/share/psi4/basis/def2-tzvppd.gbs 
    atoms 2 entry H          line    14 file /mnt/storage/home/zw18965/.conda/envs/p4env/share/psi4/basis/def2-tzvppd.gbs 

    !!!  WARNING: ECP capability is in beta. Please check occupations closely.  !!!


         ---------------------------------------------------------
                                   SCF
               by Justin Turney, Rob Parrish, Andy Simmonett
                          and Daniel G. A. Smith
                              RKS Reference
                       28 Threads, 137329 MiB Core
         ---------------------------------------------------------

  ==> Geometry <==

    Molecular point group: c2v
    Full point group: C_inf_v

    Geometry (in Angstrom), charge = 0, multiplicity = 1:

       Center              X                  Y                   Z               Mass       
    ------------   -----------------  -----------------  -----------------  -----------------
         AU           0.000000000000     0.000000000000     0.007765162693   196.966568790000
         H            0.000000000000     0.000000000000    -1.517602165860     1.007825032230

  Running in c2v symmetry.

  Rotational constants: A = ************  B =      7.22568  C =      7.22568 [cm^-1]
  Rotational constants: A = ************  B = 216620.56310  C = 216620.56310 [MHz]
  Nuclear repulsion =    6.591439854863222

  Charge       = 0
  Multiplicity = 1
  Electrons    = 20
  Nalpha       = 10
  Nbeta        = 10

  ==> Algorithm <==

  SCF Algorithm Type is DF.
  DIIS enabled.
  MOM disabled.
  Fractional occupation disabled.
  Guess Type is SAD.
  Energy threshold   = 1.00e-08
  Density threshold  = 1.00e-08
  Integral threshold = 1.00e-12

  ==> Primary Basis <==

  Basis Set: DEF2-TZVPPD
    Blend: DEF2-TZVPPD
    Number of shells: 24
    Number of basis functions: 76
    Number of Cartesian functions: 92
    Spherical Harmonics?: true
    Max angular momentum: 4

  Core potential: DEF2-TZVPPD
    Number of shells: 4
    Number of ECP primitives: 14
    Number of ECP core electrons: 60
    Max angular momentum: 3

  ==> DFT Potential <==

   => Composite Functional: GAM <= 

   GAM GGA Minessota Exchange-Correlation Functional

    H.S. Yu, et al., Phys. Chem. Chem. Phys. 17, 12146, 2015


    Deriv               =              1
    GGA                 =           TRUE
    Meta                =          FALSE

    Exchange Hybrid     =          FALSE
    MP2 Hybrid          =          FALSE

   => Exchange Functionals <=

    1.0000     XC_GGA_X_GAM

   => Correlation Functionals <=

    1.0000     XC_GGA_C_GAM

   => LibXC Density Thresholds  <==

    XC_GGA_C_GAM:  1.00E-14 
    XC_GGA_X_GAM:  1.00E-14 

   => Molecular Quadrature <=

    Radial Scheme          =       TREUTLER
    Pruning Scheme         =           NONE
    Nuclear Scheme         =       TREUTLER

    BS radius alpha        =              1
    Pruning alpha          =              1
    Radial Points          =             75
    Spherical Points       =            302
    Total Points           =          43494
    Total Blocks           =            401
    Max Points             =            255
    Max Functions          =             76
    Weights Tolerance      =       1.00E-15

   => Loading Basis Set <=

    Name: (DEF2-TZVPPD AUX)
    Role: JKFIT
    Keyword: DF_BASIS_SCF
    atoms 1 entry AU         line  8426 file /mnt/storage/home/zw18965/.conda/envs/p4env/share/psi4/basis/def2-universal-jkfit.gbs 
    atoms 2 entry H          line    18 file /mnt/storage/home/zw18965/.conda/envs/p4env/share/psi4/basis/def2-universal-jkfit.gbs 

  ==> Integral Setup <==

  DFHelper Memory: AOs need 0.015 GiB; user supplied 100.494 GiB. Using in-core AOs.

  ==> MemDFJK: Density-Fitted J/K Matrices <==

    J tasked:                   Yes
    K tasked:                    No
    wK tasked:                   No
    OpenMP threads:              28
    Memory [MiB]:            102905
    Algorithm:                 Core
    Schwarz Cutoff:           1E-12
    Mask sparsity (%):       0.0000
    Fitting Condition:        1E-10

   => Auxiliary Basis Set <=

  Basis Set: (DEF2-TZVPPD AUX)
    Blend: DEF2-UNIVERSAL-JKFIT
    Number of shells: 57
    Number of basis functions: 265
    Number of Cartesian functions: 385
    Spherical Harmonics?: true
    Max angular momentum: 6

  Cached 100.0% of DFT collocation blocks in 0.089 [GiB].

  Minimum eigenvalue in the overlap matrix is 2.3948786641E-03.
  Reciprocal condition number of the overlap matrix is 5.3290116063E-04.
    Using symmetric orthogonalization.

  ==> Pre-Iterations <==

  SCF Guess: Superposition of Atomic Densities via on-the-fly atomic UHF (no occupation information).

   -------------------------
    Irrep   Nso     Nmo    
   -------------------------
     A1        32      32 
     A2         8       8 
     B1        18      18 
     B2        18      18 
   -------------------------
    Total      76      76
   -------------------------

  ==> Iterations <==

                           Total Energy        Delta E     RMS |[F,P]|

   @DF-RKS iter SAD:  -136.52173509360475   -1.36522e+02   0.00000e+00 
   @DF-RKS iter   1:  -136.76431696203485   -2.42582e-01   9.19980e-03 DIIS
   @DF-RKS iter   2:  -136.57781272471783    1.86504e-01   1.88171e-02 DIIS
   @DF-RKS iter   3:  -136.82780667220584   -2.49994e-01   1.45404e-03 DIIS
   @DF-RKS iter   4:  -136.82834497477015   -5.38303e-04   1.16456e-03 DIIS
   @DF-RKS iter   5:  -136.82931457048559   -9.69596e-04   9.59831e-05 DIIS
   @DF-RKS iter   6:  -136.82932142495343   -6.85447e-06   4.29803e-05 DIIS
   @DF-RKS iter   7:  -136.82932356783735   -2.14288e-06   3.49705e-06 DIIS
   @DF-RKS iter   8:  -136.82932357619939   -8.36204e-09   1.93774e-07 DIIS
   @DF-RKS iter   9:  -136.82932357622778   -2.83933e-11   1.90662e-08 DIIS
   @DF-RKS iter  10:  -136.82932357622798   -1.98952e-13   1.97610e-09 DIIS
  Energy and wave function converged.


  ==> Post-Iterations <==

   Electrons on quadrature grid:
      Ntotal   =   19.9999995905 ; deviation = -4.095e-07 

    Orbital Energies [Eh]
    ---------------------

    Doubly Occupied:                                                      

       1A1    -4.021694     2A1    -2.253675     1B1    -2.231372  
       1B2    -2.231372     3A1    -0.388068     2B1    -0.284884  
       2B2    -0.284884     4A1    -0.265358     1A2    -0.265358  
       5A1    -0.230506  

    Virtual:                                                              

       6A1    -0.112047     3B2    -0.022463     3B1    -0.022463  
       7A1     0.072211     8A1     0.090483     4B2     0.163171  
       4B1     0.163171     9A1     0.167497     5B1     0.194713  
       5B2     0.194713     2A2     0.274432    10A1     0.274432  
      11A1     0.353134     6B2     0.370940     6B1     0.370940  
      12A1     0.404876    13A1     0.432451     7B1     0.767796  
       7B2     0.767796    14A1     0.935572     8B1     1.018242  
       8B2     1.018242    15A1     1.070605     3A2     1.070607  
       9B2     1.089038     9B1     1.089038    16A1     1.154059  
      10B1     1.251767    10B2     1.251767    17A1     1.379584  
      18A1     1.420554     4A2     1.420555    11B1     1.543541  
      11B2     1.543541    19A1     1.904488    20A1     2.203892  
      21A1     2.482292    22A1     3.074045     5A2     3.074110  
      12B1     3.226846    12B2     3.226846    23A1     3.425943  
      13B2     3.440958    13B1     3.440958    24A1     3.499986  
       6A2     3.499996    14B1     3.528619    14B2     3.528619  
      25A1     3.718382    15B1     3.778478    15B2     3.778478  
      16B2     3.997700    16B1     3.997700     7A2     4.007941  
      26A1     4.007942    27A1     4.061032     8A2     4.061036  
      28A1     4.436445    17B1     4.674056    17B2     4.674056  
      29A1     5.415506    18B1    27.343413    18B2    27.343413  
      30A1    29.793545    31A1    44.346368    32A1   205.170575  

    Final Occupation by Irrep:
             A1    A2    B1    B2 
    DOCC [     5,    1,    2,    2 ]

  @DF-RKS Final Energy:  -136.82932357622798

   => Energetics <=

    Nuclear Repulsion Energy =              6.5914398548632223
    One-Electron Energy =                -252.4733710947589884
    Two-Electron Energy =                 122.7860633354336386
    DFT Exchange-Correlation Energy =     -13.7334556717658565
    Empirical Dispersion Energy =           0.0000000000000000
    VV10 Nonlocal Energy =                  0.0000000000000000
    Total Energy =                       -136.8293235762280062

Computation Completed


Properties will be evaluated at   0.000000,   0.000000,   0.000000 [a0]

Properties computed using the SCF density matrix

  Nuclear Dipole Moment: [e a0]
     X:     0.0000      Y:     0.0000      Z:    -2.5890

  Electronic Dipole Moment: [e a0]
     X:     0.0000      Y:     0.0000      Z:     3.0968

  Dipole Moment: [e a0]
     X:     0.0000      Y:     0.0000      Z:     0.5078     Total:     0.5078

  Dipole Moment: [D]
     X:     0.0000      Y:     0.0000      Z:     1.2907     Total:     1.2907


*** tstop() called on compute333.bc4.acrc.priv at Fri Nov  5 12:34:22 2021
Module time:
	user time   =     481.28 seconds =       8.02 minutes
	system time =      14.63 seconds =       0.24 minutes
	total time  =         42 seconds =       0.70 minutes
Total time:
	user time   =    2913.72 seconds =      48.56 minutes
	system time =      98.64 seconds =       1.64 minutes
	total time  =        475 seconds =       7.92 minutes

*** tstart() called on compute333.bc4.acrc.priv
*** at Fri Nov  5 12:34:22 2021


         ------------------------------------------------------------
                                   SCF GRAD                          
                          Rob Parrish, Justin Turney,                
                       Andy Simmonett, and Alex Sokolov              
         ------------------------------------------------------------

  ==> Geometry <==

    Molecular point group: c2v
    Full point group: C_inf_v

    Geometry (in Angstrom), charge = 0, multiplicity = 1:

       Center              X                  Y                   Z               Mass       
    ------------   -----------------  -----------------  -----------------  -----------------
         AU           0.000000000000     0.000000000000     0.007765162693   196.966568790000
         H            0.000000000000     0.000000000000    -1.517602165860     1.007825032230

  Nuclear repulsion =    6.591439854863222

  ==> Basis Set <==

  Basis Set: DEF2-TZVPPD
    Blend: DEF2-TZVPPD
    Number of shells: 24
    Number of basis functions: 76
    Number of Cartesian functions: 92
    Spherical Harmonics?: true
    Max angular momentum: 4

  Core potential: DEF2-TZVPPD
    Number of shells: 4
    Number of ECP primitives: 14
    Number of ECP core electrons: 60
    Max angular momentum: 3

  ==> DFJKGrad: Density-Fitted SCF Gradients <==

    Gradient:                    1
    J tasked:                  Yes
    K tasked:                   No
    wK tasked:                  No
    OpenMP threads:             28
    Integrals threads:          28
    Memory [MiB]:           102996
    Schwarz Cutoff:          1E-12
    Fitting Condition:       1E-10

   => Auxiliary Basis Set <=

  Basis Set: (DEF2-TZVPPD AUX)
    Blend: DEF2-UNIVERSAL-JKFIT
    Number of shells: 57
    Number of basis functions: 265
    Number of Cartesian functions: 385
    Spherical Harmonics?: true
    Max angular momentum: 6

  ==> DFT Potential <==

   => Composite Functional: GAM <= 

   GAM GGA Minessota Exchange-Correlation Functional

    H.S. Yu, et al., Phys. Chem. Chem. Phys. 17, 12146, 2015


    Deriv               =              1
    GGA                 =           TRUE
    Meta                =          FALSE

    Exchange Hybrid     =          FALSE
    MP2 Hybrid          =          FALSE

   => Exchange Functionals <=

    1.0000     XC_GGA_X_GAM

   => Correlation Functionals <=

    1.0000     XC_GGA_C_GAM

   => LibXC Density Thresholds  <==

    XC_GGA_C_GAM:  1.00E-14 
    XC_GGA_X_GAM:  1.00E-14 

   => Molecular Quadrature <=

    Radial Scheme          =       TREUTLER
    Pruning Scheme         =           NONE
    Nuclear Scheme         =       TREUTLER

    BS radius alpha        =              1
    Pruning alpha          =              1
    Radial Points          =             75
    Spherical Points       =            302
    Total Points           =          43494
    Total Blocks           =            401
    Max Points             =            255
    Max Functions          =             76
    Weights Tolerance      =       1.00E-15


  -Total Gradient:
     Atom            X                  Y                   Z
    ------   -----------------  -----------------  -----------------
       1       -0.000000000000     0.000000000000    -0.067413932348
       2        0.000000000000     0.000000000000     0.070357040269


*** tstop() called on compute333.bc4.acrc.priv at Fri Nov  5 12:34:39 2021
Module time:
	user time   =     123.58 seconds =       2.06 minutes
	system time =       4.95 seconds =       0.08 minutes
	total time  =         17 seconds =       0.28 minutes
Total time:
	user time   =    3037.33 seconds =      50.62 minutes
	system time =     103.59 seconds =       1.73 minutes
	total time  =        492 seconds =       8.20 minutes


  ==> Adding ECP gradient terms (computed numerically) <==

  -ECP Gradient:
     Atom            X                  Y                   Z
    ------   -----------------  -----------------  -----------------
       1        0.000000000000     0.000000000000     0.062813820536
       2        0.000000000000     0.000000000000    -0.062813820492


  -Total Gradient:
     Atom            X                  Y                   Z
    ------   -----------------  -----------------  -----------------
       1       -0.000000000000     0.000000000000    -0.004600111812
       2        0.000000000000     0.000000000000     0.007543219778


         ----------------------------------------------------------
                                   FINDIF
                     R. A. King and Jonathon Misiewicz
         ---------------------------------------------------------

  Computing second-derivative from gradients using projected, 
  symmetry-adapted, cartesian coordinates.

  3 gradients passed in, including the reference geometry.
  Generating complete list of displacements from unique ones.


-------------------------------------------------------------


  ==> Harmonic Vibrational Analysis <==

  non-mass-weighted Hessian:       Symmetric? True   Hermitian? True   Lin Dep Dim?  5 (0)
  projection of translations (True) and rotations (True) removed 5 degrees of freedom (5)
  total projector:                 Symmetric? True   Hermitian? True   Lin Dep Dim?  5 (5)
  mass-weighted Hessian:           Symmetric? True   Hermitian? True   Lin Dep Dim?  5 (0)
  pre-proj  low-frequency mode:    0.0000  [cm^-1]
  pre-proj  low-frequency mode:    0.0000  [cm^-1]
  pre-proj  low-frequency mode:    0.0000  [cm^-1]
  pre-proj  low-frequency mode:    0.0000  [cm^-1]
  pre-proj  low-frequency mode:    0.0000  [cm^-1]
  pre-proj  all modes:['0.0000' '0.0000' '0.0000' '0.0000' '0.0000' '2259.1156']
  projected mass-weighted Hessian: Symmetric? True   Hermitian? True   Lin Dep Dim?  5 (5)
  post-proj low-frequency mode:    0.0000  [cm^-1] (TR)
  post-proj low-frequency mode:    0.0000  [cm^-1] (TR)
  post-proj low-frequency mode:    0.0000  [cm^-1] (TR)
  post-proj low-frequency mode:    0.0000  [cm^-1] (TR)
  post-proj low-frequency mode:    0.0000  [cm^-1] (TR)
  post-proj  all modes:['0.0000' '0.0000' '0.0000' '0.0000' '0.0000' '2259.1156']

  Vibration                       6           
  Freq [cm^-1]                2259.1156       
  Irrep                           A1          
  Reduced mass [u]              1.0130        
  Force const [mDyne/A]         3.0459        
  Turning point v=0 [a0]        0.2294        
  RMS dev v=0 [a0 u^1/2]        0.1632        
  Char temp [K]               3250.3643       
  ----------------------------------------------------------------------------------
      1   AU               0.00  0.00 -0.01   
      2   H                0.00  0.00  1.00   

  ==> Thermochemistry Components <==

  Entropy, S
    Electronic S            0.000 [cal/(mol K)]        0.000 [J/(mol K)]       0.00000000 [mEh/K] (multiplicity = 1)
    Translational S        41.754 [cal/(mol K)]      174.698 [J/(mol K)]       0.06653889 [mEh/K] (mol. weight = 197.9744 [u], P = 101325.00 [Pa])
    Rotational S            8.650 [cal/(mol K)]       36.190 [J/(mol K)]       0.01378416 [mEh/K] (symmetry no. = 1)
    Vibrational S           0.000 [cal/(mol K)]        0.002 [J/(mol K)]       0.00000069 [mEh/K]
  Total S                  50.404 [cal/(mol K)]      210.890 [J/(mol K)]       0.08032374 [mEh/K]
  Correction S              0.000 [cal/(mol K)]        0.000 [J/(mol K)]       0.00000000 [mEh/K]

  Constant volume heat capacity, Cv
    Electronic Cv           0.000 [cal/(mol K)]        0.000 [J/(mol K)]       0.00000000 [mEh/K]
    Translational Cv        2.981 [cal/(mol K)]       12.472 [J/(mol K)]       0.00475022 [mEh/K]
    Rotational Cv           1.987 [cal/(mol K)]        8.314 [J/(mol K)]       0.00316681 [mEh/K]
    Vibrational Cv          0.004 [cal/(mol K)]        0.018 [J/(mol K)]       0.00000694 [mEh/K]
  Total Cv                  4.972 [cal/(mol K)]       20.804 [J/(mol K)]       0.00792396 [mEh/K]
  Correction Cv             0.000 [cal/(mol K)]        0.000 [J/(mol K)]       0.00000000 [mEh/K]

  Constant pressure heat capacity, Cp
    Electronic Cp           0.000 [cal/(mol K)]        0.000 [J/(mol K)]       0.00000000 [mEh/K]
    Translational Cp        4.968 [cal/(mol K)]       20.786 [J/(mol K)]       0.00791703 [mEh/K]
    Rotational Cp           1.987 [cal/(mol K)]        8.314 [J/(mol K)]       0.00316681 [mEh/K]
    Vibrational Cp          0.004 [cal/(mol K)]        0.018 [J/(mol K)]       0.00000694 [mEh/K]
  Total Cp                  6.960 [cal/(mol K)]       29.119 [J/(mol K)]       0.01109077 [mEh/K]
  Correction Cp             0.000 [cal/(mol K)]        0.000 [J/(mol K)]       0.00000000 [mEh/K]

  ==> Thermochemistry Energy Analysis <==

  Raw electronic energy, E0
  Total E0, Electronic energy at well bottom at 0 [K]                 -136.82928349 [Eh]

  Zero-point energy, ZPE_vib = Sum_i nu_i / 2
    Electronic ZPE          0.000 [kcal/mol]        0.000 [kJ/mol]       0.00000000 [Eh]
    Translational ZPE       0.000 [kcal/mol]        0.000 [kJ/mol]       0.00000000 [Eh]
    Rotational ZPE          0.000 [kcal/mol]        0.000 [kJ/mol]       0.00000000 [Eh]
    Vibrational ZPE         3.230 [kcal/mol]       13.513 [kJ/mol]       0.00514664 [Eh]        1129.558 [cm^-1]
  Correction ZPE            3.230 [kcal/mol]       13.513 [kJ/mol]       0.00514664 [Eh]        1129.558 [cm^-1]
  Total ZPE, Electronic energy at 0 [K]                               -136.82413685 [Eh]

  Thermal Energy, E (includes ZPE)
    Electronic E            0.000 [kcal/mol]        0.000 [kJ/mol]       0.00000000 [Eh]
    Translational E         0.889 [kcal/mol]        3.718 [kJ/mol]       0.00141628 [Eh]
    Rotational E            0.592 [kcal/mol]        2.479 [kJ/mol]       0.00094418 [Eh]
    Vibrational E           3.230 [kcal/mol]       13.513 [kJ/mol]       0.00514683 [Eh]
  Correction E              4.711 [kcal/mol]       19.710 [kJ/mol]       0.00750729 [Eh]
  Total E, Electronic energy at  298.15 [K]                           -136.82177620 [Eh]

  Enthalpy, H_trans = E_trans + k_B * T
    Electronic H            0.000 [kcal/mol]        0.000 [kJ/mol]       0.00000000 [Eh]
    Translational H         1.481 [kcal/mol]        6.197 [kJ/mol]       0.00236046 [Eh]
    Rotational H            0.592 [kcal/mol]        2.479 [kJ/mol]       0.00094418 [Eh]
    Vibrational H           3.230 [kcal/mol]       13.513 [kJ/mol]       0.00514683 [Eh]
  Correction H              5.303 [kcal/mol]       22.189 [kJ/mol]       0.00845148 [Eh]
  Total H, Enthalpy at  298.15 [K]                                    -136.82083201 [Eh]

  Gibbs free energy, G = H - T * S
    Electronic G            0.000 [kcal/mol]        0.000 [kJ/mol]       0.00000000 [Eh]
    Translational G       -10.968 [kcal/mol]      -45.889 [kJ/mol]      -0.01747811 [Eh]
    Rotational G           -1.986 [kcal/mol]       -8.311 [kJ/mol]      -0.00316556 [Eh]
    Vibrational G           3.230 [kcal/mol]       13.512 [kJ/mol]       0.00514663 [Eh]
  Correction G             -9.725 [kcal/mol]      -40.687 [kJ/mol]      -0.01549704 [Eh]
  Total G, Free enthalpy at  298.15 [K]                               -136.84478054 [Eh]

			-----------------------------------------
			 OPTKING 2.0: for geometry optimizations 
			  - R.A. King,  Bethel University        
			-----------------------------------------
	At level 1: Red. Int., RFO, no backsteps, dynamic trust

	Internal coordinates to be generated automatically.
	Detected frag 1 with atoms:  1 2
	---Fragment 1 Bond Connectivity---
	 1 : 2
	 2 : 1

	---Fragment 1 Geometry and Gradient---
	 AU          0.0000000000        0.0000000000        0.0146486116
	 H           0.0000000000        0.0000000000       -2.8628846028
	            -0.0000000000       -0.0000000000       -0.0055631893
	             0.0000000000       -0.0000000000        0.0085039421

	Previous optimization step data not found.  Starting new optimization.

	---Fragment 1 Intrafragment Coordinates---
	 - Coordinate -           - BOHR/RAD -       - ANG/DEG -
	 R(1,2)           =         2.877533	       1.522725

	Current energy   :      -136.8292834921

	Cartesian Hessian matrix read in from external file: 
  0.000000  0.000000  0.000000  0.000000  0.000000  0.000000
  0.000000  0.000000  0.000000  0.000000  0.000000  0.000000
  0.000000  0.000000  0.193659  0.000000  0.000000 -0.193659
  0.000000  0.000000  0.000000  0.000000  0.000000  0.000000
  0.000000  0.000000  0.000000  0.000000  0.000000  0.000000
  0.000000  0.000000 -0.193659  0.000000  0.000000  0.193659
	Read in cartesian Hessian and transformed it.
	Taking RFO optimization step.
	Going to follow RFO solution 1.
	Using RFO vector 1.
	Norm of target step-size    0.03627
	Projected energy change by RFO approximation:         0.0004021670

	Back-transformation to cartesian coordinates...
	Successfully converged to displaced geometry.

	--- Internal Coordinate Step in ANG or DEG, aJ/ANG or AJ/DEG ---
	 ---------------------------------------------------------------------------
	   Coordinate                Previous        Force       Change         New 
	   ----------                --------       ------       ------       ------
	    1 R(1,2)          =      1.522725     0.057948     0.019194     1.541919
	 ---------------------------------------------------------------------------
	Successfully symmetrized geometry.

  ==> Convergence Check <==

  Measures of convergence in internal coordinates in au.
  Criteria marked as inactive (o), active & met (*), and active & unmet ( ).
  --------------------------------------------------------------------------------------------- ~
   Step     Total Energy     Delta E     MAX Force     RMS Force      MAX Disp      RMS Disp    ~
  --------------------------------------------------------------------------------------------- ~
    Convergence Criteria    1.00e-06 *    3.00e-04 *             o    1.20e-03 *             o  ~
  --------------------------------------------------------------------------------------------- ~
      1    -136.82928349   -1.37e+02      7.03e-03      7.03e-03 o    3.63e-02      3.63e-02 o  ~
  ---------------------------------------------------------------------------------------------

	Writing optimization data to binary file.
	Structure for next step:
	Cartesian Geometry (in Angstrom)
	   AU     0.0000000000   0.0000000000   0.0173487659
	    H     0.0000000000   0.0000000000  -1.5245703371
			--------------------------
			 OPTKING Finished Execution 
			--------------------------

    Structure for next step:
    Molecular point group: c2v
    Full point group: C_inf_v

    Geometry (in Angstrom), charge = 0, multiplicity = 1:

    AU           0.000000000000     0.000000000000     0.007849422573
    H            0.000000000000     0.000000000000    -1.534069686401


Scratch directory: /tmp/
gradient() will perform analytic gradient computation.

*** tstart() called on compute333.bc4.acrc.priv
*** at Fri Nov  5 12:35:55 2021

   => Loading Basis Set <=

    Name: DEF2-TZVPPD
    Role: ORBITAL
    Keyword: BASIS
    atoms 1 entry AU         line  2995 (ECP: line  4084) file /mnt/storage/home/zw18965/.conda/envs/p4env/share/psi4/basis/def2-tzvppd.gbs 
    atoms 2 entry H          line    14 file /mnt/storage/home/zw18965/.conda/envs/p4env/share/psi4/basis/def2-tzvppd.gbs 

    !!!  WARNING: ECP capability is in beta. Please check occupations closely.  !!!


         ---------------------------------------------------------
                                   SCF
               by Justin Turney, Rob Parrish, Andy Simmonett
                          and Daniel G. A. Smith
                              RKS Reference
                       28 Threads, 137329 MiB Core
         ---------------------------------------------------------

  ==> Geometry <==

    Molecular point group: c2v
    Full point group: C_inf_v

    Geometry (in Angstrom), charge = 0, multiplicity = 1:

       Center              X                  Y                   Z               Mass       
    ------------   -----------------  -----------------  -----------------  -----------------
         AU           0.000000000000     0.000000000000     0.007849422573   196.966568790000
         H            0.000000000000     0.000000000000    -1.534069686401     1.007825032230

  Running in c2v symmetry.

  Rotational constants: A = ************  B =      7.07139  C =      7.07139 [cm^-1]
  Rotational constants: A = ************  B = 211994.88348  C = 211994.88348 [MHz]
  Nuclear repulsion =    6.520683831087466

  Charge       = 0
  Multiplicity = 1
  Electrons    = 20
  Nalpha       = 10
  Nbeta        = 10

  ==> Algorithm <==

  SCF Algorithm Type is DF.
  DIIS enabled.
  MOM disabled.
  Fractional occupation disabled.
  Guess Type is READ.
  Energy threshold   = 1.00e-08
  Density threshold  = 1.00e-08
  Integral threshold = 1.00e-12

  ==> Primary Basis <==

  Basis Set: DEF2-TZVPPD
    Blend: DEF2-TZVPPD
    Number of shells: 24
    Number of basis functions: 76
    Number of Cartesian functions: 92
    Spherical Harmonics?: true
    Max angular momentum: 4

  Core potential: DEF2-TZVPPD
    Number of shells: 4
    Number of ECP primitives: 14
    Number of ECP core electrons: 60
    Max angular momentum: 3

  ==> DFT Potential <==

   => Composite Functional: GAM <= 

   GAM GGA Minessota Exchange-Correlation Functional

    H.S. Yu, et al., Phys. Chem. Chem. Phys. 17, 12146, 2015


    Deriv               =              1
    GGA                 =           TRUE
    Meta                =          FALSE

    Exchange Hybrid     =          FALSE
    MP2 Hybrid          =          FALSE

   => Exchange Functionals <=

    1.0000     XC_GGA_X_GAM

   => Correlation Functionals <=

    1.0000     XC_GGA_C_GAM

   => LibXC Density Thresholds  <==

    XC_GGA_C_GAM:  1.00E-14 
    XC_GGA_X_GAM:  1.00E-14 

   => Molecular Quadrature <=

    Radial Scheme          =       TREUTLER
    Pruning Scheme         =           NONE
    Nuclear Scheme         =       TREUTLER

    BS radius alpha        =              1
    Pruning alpha          =              1
    Radial Points          =             75
    Spherical Points       =            302
    Total Points           =          43494
    Total Blocks           =            400
    Max Points             =            253
    Max Functions          =             76
    Weights Tolerance      =       1.00E-15

   => Loading Basis Set <=

    Name: (DEF2-TZVPPD AUX)
    Role: JKFIT
    Keyword: DF_BASIS_SCF
    atoms 1 entry AU         line  8426 file /mnt/storage/home/zw18965/.conda/envs/p4env/share/psi4/basis/def2-universal-jkfit.gbs 
    atoms 2 entry H          line    18 file /mnt/storage/home/zw18965/.conda/envs/p4env/share/psi4/basis/def2-universal-jkfit.gbs 

   => Loading Basis Set <=

    Name: DEF2-TZVPPD
    Role: ORBITAL
    Keyword: BASIS
    atoms 1 entry AU         line  2995 (ECP: line  4084) file /mnt/storage/home/zw18965/.conda/envs/p4env/share/psi4/basis/def2-tzvppd.gbs 
    atoms 2 entry H          line    14 file /mnt/storage/home/zw18965/.conda/envs/p4env/share/psi4/basis/def2-tzvppd.gbs 

    !!!  WARNING: ECP capability is in beta. Please check occupations closely.  !!!

  Reading orbitals from file /tmp/Au01N0_H.default.32268.180.npy, no projection.

  ==> Integral Setup <==

  DFHelper Memory: AOs need 0.015 GiB; user supplied 100.494 GiB. Using in-core AOs.

  ==> MemDFJK: Density-Fitted J/K Matrices <==

    J tasked:                   Yes
    K tasked:                    No
    wK tasked:                   No
    OpenMP threads:              28
    Memory [MiB]:            102905
    Algorithm:                 Core
    Schwarz Cutoff:           1E-12
    Mask sparsity (%):       0.0000
    Fitting Condition:        1E-10

   => Auxiliary Basis Set <=

  Basis Set: (DEF2-TZVPPD AUX)
    Blend: DEF2-UNIVERSAL-JKFIT
    Number of shells: 57
    Number of basis functions: 265
    Number of Cartesian functions: 385
    Spherical Harmonics?: true
    Max angular momentum: 6

  Cached 100.0% of DFT collocation blocks in 0.089 [GiB].

  Minimum eigenvalue in the overlap matrix is 2.5473060533E-03.
  Reciprocal condition number of the overlap matrix is 5.6846704189E-04.
    Using symmetric orthogonalization.

  ==> Pre-Iterations <==

  SCF Guess: Orbitals guess was supplied from a previous computation.

   -------------------------------------------------------
    Irrep   Nso     Nmo     Nalpha   Nbeta   Ndocc  Nsocc
   -------------------------------------------------------
     A1        32      32       5       5       5       0
     A2         8       8       1       1       1       0
     B1        18      18       2       2       2       0
     B2        18      18       2       2       2       0
   -------------------------------------------------------
    Total      76      76      10      10      10       0
   -------------------------------------------------------

  ==> Iterations <==

                           Total Energy        Delta E     RMS |[F,P]|

   @DF-RKS iter   0:  -136.82552627288669   -1.36826e+02   1.58334e-03 
   @DF-RKS iter   1:  -136.82941825295040   -3.89198e-03   2.56880e-04 DIIS
   @DF-RKS iter   2:  -136.82929772730660    1.20526e-04   4.81560e-04 DIIS
   @DF-RKS iter   3:  -136.82946744993154   -1.69723e-04   4.11787e-05 DIIS
   @DF-RKS iter   4:  -136.82946831298352   -8.63052e-07   2.14087e-05 DIIS
   @DF-RKS iter   5:  -136.82946862019742   -3.07214e-07   1.45047e-06 DIIS
   @DF-RKS iter   6:  -136.82946862186850   -1.67108e-09   3.29839e-07 DIIS
   @DF-RKS iter   7:  -136.82946862200890   -1.40403e-10   5.27917e-08 DIIS
   @DF-RKS iter   8:  -136.82946862201132   -2.41585e-12   2.87734e-09 DIIS
  Energy and wave function converged.


  ==> Post-Iterations <==

   Electrons on quadrature grid:
      Ntotal   =   19.9999995327 ; deviation = -4.673e-07 

    Orbital Energies [Eh]
    ---------------------

    Doubly Occupied:                                                      

       1A1    -4.020895     2A1    -2.252437     1B2    -2.230752  
       1B1    -2.230752     3A1    -0.384463     2B1    -0.283981  
       2B2    -0.283981     4A1    -0.264952     1A2    -0.264952  
       5A1    -0.230568  

    Virtual:                                                              

       6A1    -0.113258     3B1    -0.022382     3B2    -0.022382  
       7A1     0.072535     8A1     0.089307     4B1     0.162970  
       4B2     0.162970     9A1     0.166938     5B2     0.194375  
       5B1     0.194375     2A2     0.274526    10A1     0.274526  
      11A1     0.351541     6B2     0.370314     6B1     0.370314  
[...]
         H            0.000000000000     0.000000000000    -1.537627772730     1.007825032230

  Running in c2v symmetry.

  Rotational constants: A = ************  B =      7.03870  C =      7.03870 [cm^-1]
  Rotational constants: A = ************  B = 211014.90199  C = 211014.90199 [MHz]
  Nuclear repulsion =    6.505594902279271

  Charge       = 0
  Multiplicity = 1
  Electrons    = 20
  Nalpha       = 10
  Nbeta        = 10

  ==> Algorithm <==

  SCF Algorithm Type is DF.
  DIIS enabled.
  MOM disabled.
  Fractional occupation disabled.
  Guess Type is SAD.
  Energy threshold   = 1.00e-08
  Density threshold  = 1.00e-08
  Integral threshold = 1.00e-12

  ==> Primary Basis <==

  Basis Set: DEF2-TZVPPD
    Blend: DEF2-TZVPPD
    Number of shells: 24
    Number of basis functions: 76
    Number of Cartesian functions: 92
    Spherical Harmonics?: true
    Max angular momentum: 4

  Core potential: DEF2-TZVPPD
    Number of shells: 4
    Number of ECP primitives: 14
    Number of ECP core electrons: 60
    Max angular momentum: 3

  ==> DFT Potential <==

   => Composite Functional: GAM <= 

   GAM GGA Minessota Exchange-Correlation Functional

    H.S. Yu, et al., Phys. Chem. Chem. Phys. 17, 12146, 2015


    Deriv               =              1
    GGA                 =           TRUE
    Meta                =          FALSE

    Exchange Hybrid     =          FALSE
    MP2 Hybrid          =          FALSE

   => Exchange Functionals <=

    1.0000     XC_GGA_X_GAM

   => Correlation Functionals <=

    1.0000     XC_GGA_C_GAM

   => LibXC Density Thresholds  <==

    XC_GGA_C_GAM:  1.00E-14 
    XC_GGA_X_GAM:  1.00E-14 

   => Molecular Quadrature <=

    Radial Scheme          =       TREUTLER
    Pruning Scheme         =           NONE
    Nuclear Scheme         =       TREUTLER

    BS radius alpha        =              1
    Pruning alpha          =              1
    Radial Points          =             75
    Spherical Points       =            302
    Total Points           =          43494
    Total Blocks           =            399
    Max Points             =            253
    Max Functions          =             76
    Weights Tolerance      =       1.00E-15

   => Loading Basis Set <=

    Name: (DEF2-TZVPPD AUX)
    Role: JKFIT
    Keyword: DF_BASIS_SCF
    atoms 1 entry AU         line  8426 file /mnt/storage/home/zw18965/.conda/envs/p4env/share/psi4/basis/def2-universal-jkfit.gbs 
    atoms 2 entry H          line    18 file /mnt/storage/home/zw18965/.conda/envs/p4env/share/psi4/basis/def2-universal-jkfit.gbs 

  ==> Integral Setup <==

  DFHelper Memory: AOs need 0.015 GiB; user supplied 100.494 GiB. Using in-core AOs.

  ==> MemDFJK: Density-Fitted J/K Matrices <==

    J tasked:                   Yes
    K tasked:                    No
    wK tasked:                   No
    OpenMP threads:              28
    Memory [MiB]:            102905
    Algorithm:                 Core
    Schwarz Cutoff:           1E-12
    Mask sparsity (%):       0.0000
    Fitting Condition:        1E-10

   => Auxiliary Basis Set <=

  Basis Set: (DEF2-TZVPPD AUX)
    Blend: DEF2-UNIVERSAL-JKFIT
    Number of shells: 57
    Number of basis functions: 265
    Number of Cartesian functions: 385
    Spherical Harmonics?: true
    Max angular momentum: 6

  Cached 100.0% of DFT collocation blocks in 0.089 [GiB].

  Minimum eigenvalue in the overlap matrix is 2.5806898174E-03.
  Reciprocal condition number of the overlap matrix is 5.7627859715E-04.
    Using symmetric orthogonalization.

  ==> Pre-Iterations <==

  SCF Guess: Superposition of Atomic Densities via on-the-fly atomic UHF (no occupation information).

   -------------------------
    Irrep   Nso     Nmo    
   -------------------------
     A1        32      32 
     A2         8       8 
     B1        18      18 
     B2        18      18 
   -------------------------
    Total      76      76
   -------------------------

  ==> Iterations <==

                           Total Energy        Delta E     RMS |[F,P]|

   @DF-RKS iter SAD:  -136.51785213693694   -1.36518e+02   0.00000e+00 
   @DF-RKS iter   1:  -136.76536393280293   -2.47512e-01   9.11935e-03 DIIS
   @DF-RKS iter   2:  -136.58134238834151    1.84022e-01   1.86551e-02 DIIS
   @DF-RKS iter   3:  -136.82794414758564   -2.46602e-01   1.46061e-03 DIIS
   @DF-RKS iter   4:  -136.82849857320639   -5.54426e-04   1.15644e-03 DIIS
   @DF-RKS iter   5:  -136.82946645080369   -9.67878e-04   9.96894e-05 DIIS
   @DF-RKS iter   6:  -136.82947440428626   -7.95348e-06   4.50090e-05 DIIS
   @DF-RKS iter   7:  -136.82947680760594   -2.40332e-06   3.62392e-06 DIIS
   @DF-RKS iter   8:  -136.82947681682992   -9.22398e-09   1.84397e-07 DIIS
   @DF-RKS iter   9:  -136.82947681685937   -2.94449e-11   1.77508e-08 DIIS
   @DF-RKS iter  10:  -136.82947681685965   -2.84217e-13   1.89296e-09 DIIS
  Energy and wave function converged.


  ==> Post-Iterations <==

   Electrons on quadrature grid:
      Ntotal   =   19.9999995220 ; deviation = -4.780e-07 

    Orbital Energies [Eh]
    ---------------------

    Doubly Occupied:                                                      

       1A1    -4.020726     2A1    -2.252176     1B1    -2.230621  
       1B2    -2.230621     3A1    -0.383695     2B1    -0.283791  
       2B2    -0.283791     4A1    -0.264867     1A2    -0.264867  
       5A1    -0.230582  

    Virtual:                                                              

       6A1    -0.113519     3B2    -0.022365     3B1    -0.022365  
       7A1     0.072607     8A1     0.089051     4B2     0.162923  
       4B1     0.162923     9A1     0.166819     5B2     0.194303  
       5B1     0.194303     2A2     0.274545    10A1     0.274545  
      11A1     0.351188     6B2     0.370178     6B1     0.370178  
      12A1     0.405180    13A1     0.429770     7B1     0.767654  
       7B2     0.767654    14A1     0.932354     8B2     1.017660  
       8B1     1.017660    15A1     1.071342     3A2     1.071344  
       9B1     1.089293     9B2     1.089293    16A1     1.152213  
      10B1     1.247653    10B2     1.247653    17A1     1.374839  
      18A1     1.420928     4A2     1.420928    11B2     1.539032  
      11B1     1.539032    19A1     1.887204    20A1     2.208677  
      21A1     2.487242    22A1     3.076730     5A2     3.076808  
      12B1     3.221396    12B2     3.221396    23A1     3.429362  
      13B1     3.441481    13B2     3.441481    24A1     3.500335  
       6A2     3.500347    14B1     3.535175    14B2     3.535175  
      25A1     3.704638    15B1     3.773406    15B2     3.773406  
      16B1     3.998361    16B2     3.998361     7A2     4.008340  
      26A1     4.008341    27A1     4.052677     8A2     4.052681  
      28A1     4.405234    17B2     4.635232    17B1     4.635232  
      29A1     5.400196    18B1    27.339379    18B2    27.339379  
      30A1    29.773876    31A1    44.321331    32A1   205.160716  

    Final Occupation by Irrep:
             A1    A2    B1    B2 
    DOCC [     5,    1,    2,    2 ]

  @DF-RKS Final Energy:  -136.82947681685965

   => Energetics <=

    Nuclear Repulsion Energy =              6.5055949022792712
    One-Electron Energy =                -252.3266006122259455
    Two-Electron Energy =                 122.7219443459086108
    DFT Exchange-Correlation Energy =     -13.7304154528215960
    Empirical Dispersion Energy =           0.0000000000000000
    VV10 Nonlocal Energy =                  0.0000000000000000
    Total Energy =                       -136.8294768168596534

Computation Completed


Properties will be evaluated at   0.000000,   0.000000,   0.000000 [a0]

Properties computed using the SCF density matrix

  Nuclear Dipole Moment: [e a0]
     X:     0.0000      Y:     0.0000      Z:    -2.6232

  Electronic Dipole Moment: [e a0]
     X:     0.0000      Y:     0.0000      Z:     3.1357

  Dipole Moment: [e a0]
     X:     0.0000      Y:     0.0000      Z:     0.5125     Total:     0.5125

  Dipole Moment: [D]
     X:     0.0000      Y:     0.0000      Z:     1.3026     Total:     1.3026


*** tstop() called on compute333.bc4.acrc.priv at Fri Nov  5 12:49:28 2021
Module time:
	user time   =     726.79 seconds =      12.11 minutes
	system time =      27.48 seconds =       0.46 minutes
	total time  =         63 seconds =       1.05 minutes
Total time:
	user time   =    8349.69 seconds =     139.16 minutes
	system time =     307.03 seconds =       5.12 minutes
	total time  =       1381 seconds =      23.02 minutes

*** tstart() called on compute333.bc4.acrc.priv
*** at Fri Nov  5 12:49:28 2021


         ------------------------------------------------------------
                                   SCF GRAD                          
                          Rob Parrish, Justin Turney,                
                       Andy Simmonett, and Alex Sokolov              
         ------------------------------------------------------------

  ==> Geometry <==

    Molecular point group: c2v
    Full point group: C_inf_v

    Geometry (in Angstrom), charge = 0, multiplicity = 1:

       Center              X                  Y                   Z               Mass       
    ------------   -----------------  -----------------  -----------------  -----------------
         AU           0.000000000000     0.000000000000     0.007867628345   196.966568790000
         H            0.000000000000     0.000000000000    -1.537627772730     1.007825032230

  Nuclear repulsion =    6.505594902279271

  ==> Basis Set <==

  Basis Set: DEF2-TZVPPD
    Blend: DEF2-TZVPPD
    Number of shells: 24
    Number of basis functions: 76
    Number of Cartesian functions: 92
    Spherical Harmonics?: true
    Max angular momentum: 4

  Core potential: DEF2-TZVPPD
    Number of shells: 4
    Number of ECP primitives: 14
    Number of ECP core electrons: 60
    Max angular momentum: 3

  ==> DFJKGrad: Density-Fitted SCF Gradients <==

    Gradient:                    1
    J tasked:                  Yes
    K tasked:                   No
    wK tasked:                  No
    OpenMP threads:             28
    Integrals threads:          28
    Memory [MiB]:           102996
    Schwarz Cutoff:          1E-12
    Fitting Condition:       1E-10

   => Auxiliary Basis Set <=

  Basis Set: (DEF2-TZVPPD AUX)
    Blend: DEF2-UNIVERSAL-JKFIT
    Number of shells: 57
    Number of basis functions: 265
    Number of Cartesian functions: 385
    Spherical Harmonics?: true
    Max angular momentum: 6

  ==> DFT Potential <==

   => Composite Functional: GAM <= 

   GAM GGA Minessota Exchange-Correlation Functional

    H.S. Yu, et al., Phys. Chem. Chem. Phys. 17, 12146, 2015


    Deriv               =              1
    GGA                 =           TRUE
    Meta                =          FALSE

    Exchange Hybrid     =          FALSE
    MP2 Hybrid          =          FALSE

   => Exchange Functionals <=

    1.0000     XC_GGA_X_GAM

   => Correlation Functionals <=

    1.0000     XC_GGA_C_GAM

   => LibXC Density Thresholds  <==

    XC_GGA_C_GAM:  1.00E-14 
    XC_GGA_X_GAM:  1.00E-14 

   => Molecular Quadrature <=

    Radial Scheme          =       TREUTLER
    Pruning Scheme         =           NONE
    Nuclear Scheme         =       TREUTLER

    BS radius alpha        =              1
    Pruning alpha          =              1
    Radial Points          =             75
    Spherical Points       =            302
    Total Points           =          43494
    Total Blocks           =            399
    Max Points             =            253
    Max Functions          =             76
    Weights Tolerance      =       1.00E-15


  -Total Gradient:
     Atom            X                  Y                   Z
    ------   -----------------  -----------------  -----------------
       1       -0.000000000000    -0.000000000000    -0.058945978348
       2        0.000000000000     0.000000000000     0.061894747046


*** tstop() called on compute333.bc4.acrc.priv at Fri Nov  5 12:49:45 2021
Module time:
	user time   =     113.39 seconds =       1.89 minutes
	system time =       4.58 seconds =       0.08 minutes
	total time  =         17 seconds =       0.28 minutes
Total time:
	user time   =    8463.11 seconds =     141.05 minutes
	system time =     311.61 seconds =       5.19 minutes
	total time  =       1398 seconds =      23.30 minutes


  ==> Adding ECP gradient terms (computed numerically) <==

  -ECP Gradient:
     Atom            X                  Y                   Z
    ------   -----------------  -----------------  -----------------
       1        0.000000000000     0.000000000000     0.061273873480
       2        0.000000000000     0.000000000000    -0.061273873483


  -Total Gradient:
     Atom            X                  Y                   Z
    ------   -----------------  -----------------  -----------------
       1        0.000000000000    -0.000000000000     0.002327895132
       2        0.000000000000     0.000000000000     0.000620873563


         ----------------------------------------------------------
                                   FINDIF
                     R. A. King and Jonathon Misiewicz
         ---------------------------------------------------------

  Computing second-derivative from gradients using projected, 
  symmetry-adapted, cartesian coordinates.

  3 gradients passed in, including the reference geometry.
  Generating complete list of displacements from unique ones.


-------------------------------------------------------------


  ==> Harmonic Vibrational Analysis <==

  non-mass-weighted Hessian:       Symmetric? True   Hermitian? True   Lin Dep Dim?  5 (0)
  projection of translations (True) and rotations (True) removed 5 degrees of freedom (5)
  total projector:                 Symmetric? True   Hermitian? True   Lin Dep Dim?  5 (5)
  mass-weighted Hessian:           Symmetric? True   Hermitian? True   Lin Dep Dim?  5 (0)
  pre-proj  low-frequency mode:    0.0000  [cm^-1]
  pre-proj  low-frequency mode:    0.0000  [cm^-1]
  pre-proj  low-frequency mode:    0.0000  [cm^-1]
  pre-proj  low-frequency mode:    0.0000  [cm^-1]
  pre-proj  low-frequency mode:    0.0000  [cm^-1]
  pre-proj  all modes:['0.0000' '0.0000' '0.0000' '0.0000' '0.0000' '2149.8367']
  projected mass-weighted Hessian: Symmetric? True   Hermitian? True   Lin Dep Dim?  5 (5)
  post-proj low-frequency mode:    0.0000  [cm^-1] (TR)
  post-proj low-frequency mode:    0.0000  [cm^-1] (TR)
  post-proj low-frequency mode:    0.0000  [cm^-1] (TR)
  post-proj low-frequency mode:    0.0000  [cm^-1] (TR)
  post-proj low-frequency mode:    0.0000  [cm^-1] (TR)
  post-proj  all modes:['0.0000' '0.0000' '0.0000' '0.0000' '0.0000' '2149.8367']

  Vibration                       6           
  Freq [cm^-1]                2149.8367       
  Irrep                           A1          
  Reduced mass [u]              1.0130        
  Force const [mDyne/A]         2.7584        
  Turning point v=0 [a0]        0.2351        
  RMS dev v=0 [a0 u^1/2]        0.1673        
  Char temp [K]               3093.1364       
  ----------------------------------------------------------------------------------
      1   AU               0.00  0.00 -0.01   
      2   H                0.00  0.00  1.00   

  ==> Thermochemistry Components <==

  Entropy, S
    Electronic S            0.000 [cal/(mol K)]        0.000 [J/(mol K)]       0.00000000 [mEh/K] (multiplicity = 1)
    Translational S        41.754 [cal/(mol K)]      174.698 [J/(mol K)]       0.06653889 [mEh/K] (mol. weight = 197.9744 [u], P = 101325.00 [Pa])
    Rotational S            8.702 [cal/(mol K)]       36.409 [J/(mol K)]       0.01386733 [mEh/K] (symmetry no. = 1)
    Vibrational S           0.001 [cal/(mol K)]        0.003 [J/(mol K)]       0.00000112 [mEh/K]
  Total S                  50.456 [cal/(mol K)]      211.109 [J/(mol K)]       0.08040734 [mEh/K]
  Correction S              0.000 [cal/(mol K)]        0.000 [J/(mol K)]       0.00000000 [mEh/K]

  Constant volume heat capacity, Cv
    Electronic Cv           0.000 [cal/(mol K)]        0.000 [J/(mol K)]       0.00000000 [mEh/K]
    Translational Cv        2.981 [cal/(mol K)]       12.472 [J/(mol K)]       0.00475022 [mEh/K]
    Rotational Cv           1.987 [cal/(mol K)]        8.314 [J/(mol K)]       0.00316681 [mEh/K]
    Vibrational Cv          0.007 [cal/(mol K)]        0.028 [J/(mol K)]       0.00001064 [mEh/K]
  Total Cv                  4.975 [cal/(mol K)]       20.814 [J/(mol K)]       0.00792767 [mEh/K]
  Correction Cv             0.000 [cal/(mol K)]        0.000 [J/(mol K)]       0.00000000 [mEh/K]

  Constant pressure heat capacity, Cp
    Electronic Cp           0.000 [cal/(mol K)]        0.000 [J/(mol K)]       0.00000000 [mEh/K]
    Translational Cp        4.968 [cal/(mol K)]       20.786 [J/(mol K)]       0.00791703 [mEh/K]
    Rotational Cp           1.987 [cal/(mol K)]        8.314 [J/(mol K)]       0.00316681 [mEh/K]
    Vibrational Cp          0.007 [cal/(mol K)]        0.028 [J/(mol K)]       0.00001064 [mEh/K]
  Total Cp                  6.962 [cal/(mol K)]       29.129 [J/(mol K)]       0.01109448 [mEh/K]
  Correction Cp             0.000 [cal/(mol K)]        0.000 [J/(mol K)]       0.00000000 [mEh/K]

  ==> Thermochemistry Energy Analysis <==

  Raw electronic energy, E0
  Total E0, Electronic energy at well bottom at 0 [K]                 -136.82947153 [Eh]

  Zero-point energy, ZPE_vib = Sum_i nu_i / 2
    Electronic ZPE          0.000 [kcal/mol]        0.000 [kJ/mol]       0.00000000 [Eh]
    Translational ZPE       0.000 [kcal/mol]        0.000 [kJ/mol]       0.00000000 [Eh]
    Rotational ZPE          0.000 [kcal/mol]        0.000 [kJ/mol]       0.00000000 [Eh]
    Vibrational ZPE         3.073 [kcal/mol]       12.859 [kJ/mol]       0.00489769 [Eh]        1074.918 [cm^-1]
  Correction ZPE            3.073 [kcal/mol]       12.859 [kJ/mol]       0.00489769 [Eh]        1074.918 [cm^-1]
  Total ZPE, Electronic energy at 0 [K]                               -136.82457384 [Eh]

  Thermal Energy, E (includes ZPE)
    Electronic E            0.000 [kcal/mol]        0.000 [kJ/mol]       0.00000000 [Eh]
    Translational E         0.889 [kcal/mol]        3.718 [kJ/mol]       0.00141628 [Eh]
    Rotational E            0.592 [kcal/mol]        2.479 [kJ/mol]       0.00094418 [Eh]
    Vibrational E           3.074 [kcal/mol]       12.860 [kJ/mol]       0.00489799 [Eh]
  Correction E              4.555 [kcal/mol]       19.057 [kJ/mol]       0.00725846 [Eh]
  Total E, Electronic energy at  298.15 [K]                           -136.82221308 [Eh]

  Enthalpy, H_trans = E_trans + k_B * T
    Electronic H            0.000 [kcal/mol]        0.000 [kJ/mol]       0.00000000 [Eh]
    Translational H         1.481 [kcal/mol]        6.197 [kJ/mol]       0.00236046 [Eh]
    Rotational H            0.592 [kcal/mol]        2.479 [kJ/mol]       0.00094418 [Eh]
    Vibrational H           3.074 [kcal/mol]       12.860 [kJ/mol]       0.00489799 [Eh]
  Correction H              5.147 [kcal/mol]       21.536 [kJ/mol]       0.00820264 [Eh]
  Total H, Enthalpy at  298.15 [K]                                    -136.82126889 [Eh]

  Gibbs free energy, G = H - T * S
    Electronic G            0.000 [kcal/mol]        0.000 [kJ/mol]       0.00000000 [Eh]
    Translational G       -10.968 [kcal/mol]      -45.889 [kJ/mol]      -0.01747811 [Eh]
    Rotational G           -2.002 [kcal/mol]       -8.376 [kJ/mol]      -0.00319036 [Eh]
    Vibrational G           3.073 [kcal/mol]       12.859 [kJ/mol]       0.00489766 [Eh]
  Correction G             -9.896 [kcal/mol]      -41.406 [kJ/mol]      -0.01577081 [Eh]
  Total G, Free enthalpy at  298.15 [K]                               -136.84524234 [Eh]

    Psi4 stopped on: Friday, 05 November 2021 12:51PM
    Psi4 wall time for execution: 0:24:33.89

*** Psi4 exiting successfully. Buy a developer a beer!
