Too many bad steps.
Optimizer: Optimization complete!
 3 displacements needed.
 1 2 3
At level 1: Red. Int., RFO, no backsteps, dynamic trust
At level 1: Red. Int., RFO, no backsteps, dynamic trust
At level 1: Red. Int., RFO, no backsteps, dynamic trust
At level 1: Red. Int., RFO, no backsteps, dynamic trust
At level 1: Red. Int., RFO, no backsteps, dynamic trust
At level 1: Red. Int., RFO, no backsteps, dynamic trust
At level 2: Red. Int., RFO, backsteps, smaller trust.
At level 2: Red. Int., RFO, backsteps, smaller trust.
At level 2: Red. Int., RFO, backsteps, smaller trust.
At level 2: Red. Int., RFO, backsteps, smaller trust.
II, A. Yu. Sokolov,
    K. Patkowski, A. E. DePrince III, U. Bozkaya, R. A. King,
    F. A. Evangelista, J. M. Turney, T. D. Crawford, C. D. Sherrill,
    J. Chem. Phys. 152(18) 184108 (2020). https://doi.org/10.1063/5.0006002

                            Additional Code Authors
    E. T. Seidl, C. L. Janssen, E. F. Valeev, M. L. Leininger,
    J. F. Gonthier, R. M. Richard, H. R. McAlexander, M. Saitow, X. Wang,
    P. Verma, and M. H. Lechner

             Previous Authors, Complete List of Code Contributors,
                       and Citations for Specific Modules
    https://github.com/psi4/psi4/blob/master/codemeta.json
    https://github.com/psi4/psi4/graphs/contributors
    http://psicode.org/psi4manual/master/introduction.html#citing-psifour

    -----------------------------------------------------------------------


    Psi4 started on: Monday, 01 November 2021 04:09PM

    Process ID: 13241
    Host:       compute224.bc4.acrc.priv
    PSIDATADIR: /mnt/storage/home/zw18965/.conda/envs/p4env/share/psi4
    Memory:     500.0 MiB
    Threads:    28
    
  ==> Input File <==

--------------------------------------------------------------------------
memory 144 GB

molecule {
0 1
Cu       0.000000    0.000000    0.048513 
H        0.000000    0.000000   -1.406870 
 }

set dynamic_level 1
set basis Def2-TZVPPD

optimize("GAM")
frequencies("GAM")
--------------------------------------------------------------------------

  Memory set to 134.110 GiB by Python driver.

Scratch directory: /tmp/
gradient() will perform analytic gradient computation.

*** tstart() called on compute224.bc4.acrc.priv
*** at Mon Nov  1 16:09:18 2021

   => Loading Basis Set <=

    Name: DEF2-TZVPPD
    Role: ORBITAL
    Keyword: BASIS
    atoms 1 entry CU         line  1290 file /mnt/storage/home/zw18965/.conda/envs/p4env/share/psi4/basis/def2-tzvppd.gbs 
    atoms 2 entry H          line    14 file /mnt/storage/home/zw18965/.conda/envs/p4env/share/psi4/basis/def2-tzvppd.gbs 


         ---------------------------------------------------------
                                   SCF
               by Justin Turney, Rob Parrish, Andy Simmonett
                          and Daniel G. A. Smith
                              RKS Reference
                       28 Threads, 137329 MiB Core
         ---------------------------------------------------------

  ==> Geometry <==

    Molecular point group: c2v
    Full point group: C_inf_v

    Geometry (in Angstrom), charge = 0, multiplicity = 1:

       Center              X                  Y                   Z               Mass       
    ------------   -----------------  -----------------  -----------------  -----------------
         CU           0.000000000000     0.000000000000     0.022940734170    62.929597720000
         H            0.000000000000     0.000000000000    -1.432442265830     1.007825032230

  Running in c2v symmetry.

  Rotational constants: A = ************  B =      8.02337  C =      8.02337 [cm^-1]
  Rotational constants: A = ************  B = 240534.64253  C = 240534.64253 [MHz]
  Nuclear repulsion =   10.544399040960354

  Charge       = 0
  Multiplicity = 1
  Electrons    = 30
  Nalpha       = 15
  Nbeta        = 15

  ==> Algorithm <==

  SCF Algorithm Type is DF.
  DIIS enabled.
  MOM disabled.
  Fractional occupation disabled.
  Guess Type is SAD.
  Energy threshold   = 1.00e-08
  Density threshold  = 1.00e-08
  Integral threshold = 1.00e-12

  ==> Primary Basis <==

  Basis Set: DEF2-TZVPPD
    Blend: DEF2-TZVPPD
    Number of shells: 26
    Number of basis functions: 84
    Number of Cartesian functions: 101
    Spherical Harmonics?: true
    Max angular momentum: 4

  ==> DFT Potential <==

   => Composite Functional: GAM <= 

   GAM GGA Minessota Exchange-Correlation Functional

    H.S. Yu, et al., Phys. Chem. Chem. Phys. 17, 12146, 2015


    Deriv               =              1
    GGA                 =           TRUE
    Meta                =          FALSE

    Exchange Hybrid     =          FALSE
    MP2 Hybrid          =          FALSE

   => Exchange Functionals <=

    1.0000     XC_GGA_X_GAM

   => Correlation Functionals <=

    1.0000     XC_GGA_C_GAM

   => LibXC Density Thresholds  <==

    XC_GGA_C_GAM:  1.00E-14 
    XC_GGA_X_GAM:  1.00E-14 

   => Molecular Quadrature <=

    Radial Scheme          =       TREUTLER
    Pruning Scheme         =           NONE
    Nuclear Scheme         =       TREUTLER

    BS radius alpha        =              1
    Pruning alpha          =              1
    Radial Points          =             75
    Spherical Points       =            302
    Total Points           =          43978
    Total Blocks           =            406
    Max Points             =            255
    Max Functions          =             84
    Weights Tolerance      =       1.00E-15

   => Loading Basis Set <=

    Name: (DEF2-TZVPPD AUX)
    Role: JKFIT
    Keyword: DF_BASIS_SCF
    atoms 1 entry CU         line  2356 file /mnt/storage/home/zw18965/.conda/envs/p4env/share/psi4/basis/def2-universal-jkfit.gbs 
    atoms 2 entry H          line    18 file /mnt/storage/home/zw18965/.conda/envs/p4env/share/psi4/basis/def2-universal-jkfit.gbs 

  ==> Integral Setup <==

  DFHelper Memory: AOs need 0.019 GiB; user supplied 100.493 GiB. Using in-core AOs.

  ==> MemDFJK: Density-Fitted J/K Matrices <==

    J tasked:                   Yes
    K tasked:                    No
    wK tasked:                   No
    OpenMP threads:              28
    Memory [MiB]:            102904
    Algorithm:                 Core
    Schwarz Cutoff:           1E-12
    Mask sparsity (%):       0.0000
    Fitting Condition:        1E-10

   => Auxiliary Basis Set <=

  Basis Set: (DEF2-TZVPPD AUX)
    Blend: DEF2-UNIVERSAL-JKFIT
    Number of shells: 64
    Number of basis functions: 282
    Number of Cartesian functions: 397
    Spherical Harmonics?: true
    Max angular momentum: 6

  Cached 100.0% of DFT collocation blocks in 0.090 [GiB].

  Minimum eigenvalue in the overlap matrix is 1.9901460399E-03.
  Reciprocal condition number of the overlap matrix is 4.6612350372E-04.
    Using symmetric orthogonalization.

  ==> Pre-Iterations <==

  SCF Guess: Superposition of Atomic Densities via on-the-fly atomic UHF (no occupation information).

   -------------------------
    Irrep   Nso     Nmo    
   -------------------------
     A1        35      35 
     A2         9       9 
     B1        20      20 
     B2        20      20 
   -------------------------
    Total      84      84
   -------------------------

  ==> Iterations <==

                           Total Energy        Delta E     RMS |[F,P]|

   @DF-RKS iter SAD: -1639.56046080644910   -1.63956e+03   0.00000e+00 
    Occupation by irrep:
             A1    A2    B1    B2 
    DOCC [     9,    0,    3,    3 ]

   @DF-RKS iter   1: -1638.35667481677956    1.20379e+00   1.01457e-01 DIIS
    Occupation by irrep:
             A1    A2    B1    B2 
    DOCC [     8,    1,    3,    3 ]

   @DF-RKS iter   2: -1598.51415933993462    3.98425e+01   2.11294e-01 DIIS
    Occupation by irrep:
             A1    A2    B1    B2 
    DOCC [     9,    0,    3,    3 ]

   @DF-RKS iter   3: -1640.94000225584432   -4.24258e+01   4.57319e-02 DIIS
    Occupation by irrep:
             A1    A2    B1    B2 
    DOCC [     8,    1,    3,    3 ]

   @DF-RKS iter   4: -1630.80574584980263    1.01343e+01   1.46557e-01 DIIS
   @DF-RKS iter   5: -1641.57253038399858   -1.07668e+01   2.93320e-02 DIIS
   @DF-RKS iter   6: -1642.00242880357223   -4.29898e-01   6.90198e-03 DIIS
   @DF-RKS iter   7: -1642.01250903931646   -1.00802e-02   2.97516e-03 DIIS
   @DF-RKS iter   8: -1642.02462119997949   -1.21122e-02   3.53560e-04 DIIS
   @DF-RKS iter   9: -1642.02472811070902   -1.06911e-04   2.37496e-05 DIIS
   @DF-RKS iter  10: -1642.02472892004289   -8.09334e-07   1.53951e-05 DIIS
   @DF-RKS iter  11: -1642.02472936541926   -4.45376e-07   2.14131e-06 DIIS
   @DF-RKS iter  12: -1642.02472936759659   -2.17733e-09   6.77305e-07 DIIS
   @DF-RKS iter  13: -1642.02472936777531   -1.78716e-10   1.36925e-07 DIIS
   @DF-RKS iter  14: -1642.02472936778486   -9.54969e-12   4.83237e-09 DIIS
  Energy and wave function converged.


  ==> Post-Iterations <==

   Electrons on quadrature grid:
      Ntotal   =   29.9999999329 ; deviation = -6.712e-08 

    Orbital Energies [Eh]
    ---------------------

    Doubly Occupied:                                                      

       1A1  -320.898154     2A1   -38.372717     3A1   -33.773061  
       1B1   -33.769375     1B2   -33.769375     4A1    -4.140507  
       5A1    -2.682937     2B1    -2.673405     2B2    -2.673405  
       6A1    -0.294812     3B1    -0.224269     3B2    -0.224269  
       7A1    -0.216922     1A2    -0.216922     8A1    -0.198345  

    Virtual:                                                              

       9A1    -0.100686     4B2    -0.021478     4B1    -0.021478  
      10A1     0.059038    11A1     0.071111     5B1     0.122791  
       5B2     0.122791    12A1     0.129858     6B2     0.154109  
       6B1     0.154109     2A2     0.166987    13A1     0.166987  
      14A1     0.268815     7B2     0.281004     7B1     0.281004  
      15A1     0.340063    16A1     0.426365     8B2     0.633411  
       8B1     0.633411    17A1     0.672343     9B2     0.764458  
       9B1     0.764458    18A1     0.848166     3A2     0.848166  
      19A1     0.976719    10B1     1.058984    10B2     1.058984  
      20A1     1.245461    21A1     2.396779    22A1     2.612226  
      11B1     2.881119    11B2     2.881119    12B2     2.935582  
      12B1     2.935582    23A1     3.088241     4A2     3.088257  
      24A1     3.120554    25A1     3.211891    13B2     3.360923  
      13B1     3.360923    26A1     3.445521     5A2     3.445521  
      27A1     3.558523     6A2     3.558524    14B1     3.566843  
      14B2     3.566843    28A1     3.685926    15B2     3.760518  
      15B1     3.760518    16B2     4.089849    16B1     4.089849  
      29A1     4.196987    30A1     5.172762    31A1    12.747485  
       7A2    12.747485    17B1    12.750523    17B2    12.750523  
       8A2    12.754458    32A1    12.754459    18B1    12.755595  
      18B2    12.755595    33A1    12.762587    19B2    12.881495  
      19B1    12.881495    34A1    12.883696     9A2    12.883697  
      20B2    12.981028    20B1    12.981028    35A1    13.210577  

    Final Occupation by Irrep:
             A1    A2    B1    B2 
    DOCC [     8,    1,    3,    3 ]

  @DF-RKS Final Energy: -1642.02472936778486

   => Energetics <=

    Nuclear Repulsion Energy =             10.5443990409603536
    One-Electron Energy =               -2312.1135209386216047
    Two-Electron Energy =                 728.2408874441067610
    DFT Exchange-Correlation Energy =     -68.6964949142302856
    Empirical Dispersion Energy =           0.0000000000000000
    VV10 Nonlocal Energy =                  0.0000000000000000
    Total Energy =                      -1642.0247293677848575

Computation Completed


Properties will be evaluated at   0.000000,   0.000000,   0.000000 [a0]

Properties computed using the SCF density matrix

  Nuclear Dipole Moment: [e a0]
     X:     0.0000      Y:     0.0000      Z:    -1.4497

  Electronic Dipole Moment: [e a0]
     X:     0.0000      Y:     0.0000      Z:     2.4063

  Dipole Moment: [e a0]
     X:     0.0000      Y:     0.0000      Z:     0.9565     Total:     0.9565

  Dipole Moment: [D]
     X:     0.0000      Y:     0.0000      Z:     2.4313     Total:     2.4313


*** tstop() called on compute224.bc4.acrc.priv at Mon Nov  1 16:09:20 2021
Module time:
	user time   =      30.85 seconds =       0.51 minutes
	system time =       2.10 seconds =       0.04 minutes
	total time  =          2 seconds =       0.03 minutes
Total time:
	user time   =      30.85 seconds =       0.51 minutes
	system time =       2.10 seconds =       0.04 minutes
	total time  =          2 seconds =       0.03 minutes

*** tstart() called on compute224.bc4.acrc.priv
*** at Mon Nov  1 16:09:20 2021


         ------------------------------------------------------------
                                   SCF GRAD                          
                          Rob Parrish, Justin Turney,                
                       Andy Simmonett, and Alex Sokolov              
         ------------------------------------------------------------

  ==> Geometry <==

    Molecular point group: c2v
    Full point group: C_inf_v

    Geometry (in Angstrom), charge = 0, multiplicity = 1:

       Center              X                  Y                   Z               Mass       
    ------------   -----------------  -----------------  -----------------  -----------------
         CU           0.000000000000     0.000000000000     0.022940734170    62.929597720000
         H            0.000000000000     0.000000000000    -1.432442265830     1.007825032230

  Nuclear repulsion =   10.544399040960354

  ==> Basis Set <==

  Basis Set: DEF2-TZVPPD
    Blend: DEF2-TZVPPD
    Number of shells: 26
    Number of basis functions: 84
    Number of Cartesian functions: 101
    Spherical Harmonics?: true
    Max angular momentum: 4

  ==> DFJKGrad: Density-Fitted SCF Gradients <==

    Gradient:                    1
    J tasked:                  Yes
    K tasked:                   No
    wK tasked:                  No
    OpenMP threads:             28
    Integrals threads:          28
    Memory [MiB]:           102996
    Schwarz Cutoff:          1E-12
    Fitting Condition:       1E-10

   => Auxiliary Basis Set <=

  Basis Set: (DEF2-TZVPPD AUX)
    Blend: DEF2-UNIVERSAL-JKFIT
    Number of shells: 64
    Number of basis functions: 282
    Number of Cartesian functions: 397
    Spherical Harmonics?: true
    Max angular momentum: 6

  ==> DFT Potential <==

   => Composite Functional: GAM <= 

   GAM GGA Minessota Exchange-Correlation Functional

    H.S. Yu, et al., Phys. Chem. Chem. Phys. 17, 12146, 2015


    Deriv               =              1
    GGA                 =           TRUE
    Meta                =          FALSE

    Exchange Hybrid     =          FALSE
    MP2 Hybrid          =          FALSE

   => Exchange Functionals <=

    1.0000     XC_GGA_X_GAM

   => Correlation Functionals <=

    1.0000     XC_GGA_C_GAM

   => LibXC Density Thresholds  <==

    XC_GGA_C_GAM:  1.00E-14 
    XC_GGA_X_GAM:  1.00E-14 

   => Molecular Quadrature <=

    Radial Scheme          =       TREUTLER
    Pruning Scheme         =           NONE
    Nuclear Scheme         =       TREUTLER

    BS radius alpha        =              1
    Pruning alpha          =              1
    Radial Points          =             75
    Spherical Points       =            302
    Total Points           =          43978
    Total Blocks           =            406
    Max Points             =            255
    Max Functions          =             84
    Weights Tolerance      =       1.00E-15


  -Total Gradient:
     Atom            X                  Y                   Z
    ------   -----------------  -----------------  -----------------
       1        0.000000000000    -0.000000000000    -0.009035756042
       2        0.000000000000    -0.000000000000     0.008521273025


*** tstop() called on compute224.bc4.acrc.priv at Mon Nov  1 16:09:26 2021
Module time:
	user time   =      29.43 seconds =       0.49 minutes
	system time =       3.87 seconds =       0.06 minutes
	total time  =          6 seconds =       0.10 minutes
Total time:
	user time   =      60.34 seconds =       1.01 minutes
	system time =       5.97 seconds =       0.10 minutes
	total time  =          8 seconds =       0.13 minutes

			-----------------------------------------
			 OPTKING 2.0: for geometry optimizations 
			  - R.A. King,  Bethel University        
			-----------------------------------------
	At level 1: Red. Int., RFO, no backsteps, dynamic trust

	Internal coordinates to be generated automatically.
	Detected frag 1 with atoms:  1 2
	---Fragment 1 Bond Connectivity---
	 1 : 2
	 2 : 1

	---Fragment 1 Geometry and Gradient---
	 CU          0.0000000000        0.0000000000        0.0433517047
	 H           0.0000000000        0.0000000000       -2.7069235729
	             0.0000000000       -0.0000000000       -0.0090357560
	             0.0000000000       -0.0000000000        0.0085212730

	Previous optimization step data not found.  Starting new optimization.

	---Fragment 1 Intrafragment Coordinates---
	 - Coordinate -           - BOHR/RAD -       - ANG/DEG -
	 R(1,2)           =         2.750275	       1.455383

	Current energy   :     -1642.0247293678

	Generating empirical Hessian (Schlegel '84) for each fragment.
	Taking RFO optimization step.
	Going to follow RFO solution 1.
	Using RFO vector 1.
	Norm of target step-size    0.00161
	Projected energy change by RFO approximation:        -0.0000128220

	Back-transformation to cartesian coordinates...
	Successfully converged to displaced geometry.

	--- Internal Coordinate Step in ANG or DEG, aJ/ANG or AJ/DEG ---
	 ---------------------------------------------------------------------------
	   Coordinate                Previous        Force       Change         New 
	   ----------                --------       ------       ------       ------
	    1 R(1,2)          =      1.455383     0.072324     0.000851     1.456234
	 ---------------------------------------------------------------------------
	Successfully symmetrized geometry.

  ==> Convergence Check <==

  Measures of convergence in internal coordinates in au.
  Criteria marked as inactive (o), active & met (*), and active & unmet ( ).
  --------------------------------------------------------------------------------------------- ~
   Step     Total Energy     Delta E     MAX Force     RMS Force      MAX Disp      RMS Disp    ~
  --------------------------------------------------------------------------------------------- ~
    Convergence Criteria    1.00e-06 *    3.00e-04 *             o    1.20e-03 *             o  ~
  --------------------------------------------------------------------------------------------- ~
      1   -1642.02472937   -1.64e+03      8.78e-03      8.78e-03 o    1.61e-03      1.61e-03 o  ~
  ---------------------------------------------------------------------------------------------

	Writing optimization data to binary file.
	Structure for next step:
	Cartesian Geometry (in Angstrom)
	   CU     0.0000000000   0.0000000000   0.0233661570
	    H     0.0000000000   0.0000000000  -1.4328676831
			--------------------------
			 OPTKING Finished Execution 
			--------------------------

    Structure for next step:
    Molecular point group: c2v
    Full point group: C_inf_v

    Geometry (in Angstrom), charge = 0, multiplicity = 1:

    CU           0.000000000000     0.000000000000     0.022954145779
    H            0.000000000000     0.000000000000    -1.433279700010


Scratch directory: /tmp/
gradient() will perform analytic gradient computation.

*** tstart() called on compute224.bc4.acrc.priv
*** at Mon Nov  1 16:09:26 2021

   => Loading Basis Set <=

    Name: DEF2-TZVPPD
    Role: ORBITAL
    Keyword: BASIS
    atoms 1 entry CU         line  1290 file /mnt/storage/home/zw18965/.conda/envs/p4env/share/psi4/basis/def2-tzvppd.gbs 
    atoms 2 entry H          line    14 file /mnt/storage/home/zw18965/.conda/envs/p4env/share/psi4/basis/def2-tzvppd.gbs 


         ---------------------------------------------------------
                                   SCF
               by Justin Turney, Rob Parrish, Andy Simmonett
                          and Daniel G. A. Smith
                              RKS Reference
                       28 Threads, 137329 MiB Core
         ---------------------------------------------------------

  ==> Geometry <==

    Molecular point group: c2v
    Full point group: C_inf_v

    Geometry (in Angstrom), charge = 0, multiplicity = 1:

       Center              X                  Y                   Z               Mass       
    ------------   -----------------  -----------------  -----------------  -----------------
         CU           0.000000000000     0.000000000000     0.022954145779    62.929597720000
         H            0.000000000000     0.000000000000    -1.433279700010     1.007825032230

  Running in c2v symmetry.

  Rotational constants: A = ************  B =      8.01400  C =      8.01400 [cm^-1]
  Rotational constants: A = ************  B = 240253.64632  C = 240253.64632 [MHz]
  Nuclear repulsion =   10.538238177752199

  Charge       = 0
  Multiplicity = 1
  Electrons    = 30
  Nalpha       = 15
  Nbeta        = 15

  ==> Algorithm <==

  SCF Algorithm Type is DF.
  DIIS enabled.
  MOM disabled.
  Fractional occupation disabled.
  Guess Type is READ.
  Energy threshold   = 1.00e-08
  Density threshold  = 1.00e-08
  Integral threshold = 1.00e-12

  ==> Primary Basis <==

  Basis Set: DEF2-TZVPPD
    Blend: DEF2-TZVPPD
    Number of shells: 26
    Number of basis functions: 84
    Number of Cartesian functions: 101
    Spherical Harmonics?: true
    Max angular momentum: 4

  ==> DFT Potential <==

   => Composite Functional: GAM <= 

   GAM GGA Minessota Exchange-Correlation Functional

    H.S. Yu, et al., Phys. Chem. Chem. Phys. 17, 12146, 2015


    Deriv               =              1
    GGA                 =           TRUE
    Meta                =          FALSE

    Exchange Hybrid     =          FALSE
    MP2 Hybrid          =          FALSE

   => Exchange Functionals <=

    1.0000     XC_GGA_X_GAM

   => Correlation Functionals <=

    1.0000     XC_GGA_C_GAM

   => LibXC Density Thresholds  <==

    XC_GGA_C_GAM:  1.00E-14 
    XC_GGA_X_GAM:  1.00E-14 

   => Molecular Quadrature <=

    Radial Scheme          =       TREUTLER
    Pruning Scheme         =           NONE
    Nuclear Scheme         =       TREUTLER

    BS radius alpha        =              1
    Pruning alpha          =              1
    Radial Points          =             75
    Spherical Points       =            302
    Total Points           =          43978
    Total Blocks           =            406
    Max Points             =            255
    Max Functions          =             84
    Weights Tolerance      =       1.00E-15

   => Loading Basis Set <=

    Name: (DEF2-TZVPPD AUX)
    Role: JKFIT
    Keyword: DF_BASIS_SCF
    atoms 1 entry CU         line  2356 file /mnt/storage/home/zw18965/.conda/envs/p4env/share/psi4/basis/def2-universal-jkfit.gbs 
    atoms 2 entry H          line    18 file /mnt/storage/home/zw18965/.conda/envs/p4env/share/psi4/basis/def2-universal-jkfit.gbs 

   => Loading Basis Set <=

    Name: DEF2-TZVPPD
    Role: ORBITAL
    Keyword: BASIS
    atoms 1 entry CU         line  1290 file /mnt/storage/home/zw18965/.conda/envs/p4env/share/psi4/basis/def2-tzvppd.gbs 
    atoms 2 entry H          line    14 file /mnt/storage/home/zw18965/.conda/envs/p4env/share/psi4/basis/def2-tzvppd.gbs 

  Reading orbitals from file /tmp/Cu01N0_H.default.13241.180.npy, no projection.

  ==> Integral Setup <==

  DFHelper Memory: AOs need 0.019 GiB; user supplied 100.493 GiB. Using in-core AOs.

  ==> MemDFJK: Density-Fitted J/K Matrices <==

    J tasked:                   Yes
    K tasked:                    No
    wK tasked:                   No
    OpenMP threads:              28
    Memory [MiB]:            102904
    Algorithm:                 Core
    Schwarz Cutoff:           1E-12
    Mask sparsity (%):       0.0000
    Fitting Condition:        1E-10

   => Auxiliary Basis Set <=

  Basis Set: (DEF2-TZVPPD AUX)
    Blend: DEF2-UNIVERSAL-JKFIT
    Number of shells: 64
    Number of basis functions: 282
    Number of Cartesian functions: 397
    Spherical Harmonics?: true
    Max angular momentum: 6

  Cached 100.0% of DFT collocation blocks in 0.090 [GiB].

  Minimum eigenvalue in the overlap matrix is 1.9968441612E-03.
  Reciprocal condition number of the overlap matrix is 4.6774353285E-04.
    Using symmetric orthogonalization.

  ==> Pre-Iterations <==

  SCF Guess: Orbitals guess was supplied from a previous computation.

   -------------------------------------------------------
    Irrep   Nso     Nmo     Nalpha   Nbeta   Ndocc  Nsocc
   -------------------------------------------------------
     A1        35      35       8       8       8       0
     A2         9       9       1       1       1       0
     B1        20      20       3       3       3       0
     B2        20      20       3       3       3       0
   -------------------------------------------------------
    Total      84      84      15      15      15       0
   -------------------------------------------------------

  ==> Iterations <==

                           Total Energy        Delta E     RMS |[F,P]|

   @DF-RKS iter   0: -1642.02467498531087   -1.64202e+03   4.06665e-05 
   @DF-RKS iter   1: -1642.02474279894818   -6.78136e-05   9.67500e-06 DIIS
   @DF-RKS iter   2: -1642.02474231860424    4.80344e-07   3.57651e-05 DIIS
   @DF-RKS iter   3: -1642.02474284643131   -5.27827e-07   4.30084e-06 DIIS
   @DF-RKS iter   4: -1642.02474287126256   -2.48313e-08   1.54135e-06 DIIS
   @DF-RKS iter   5: -1642.02474287236782   -1.10526e-09   8.02229e-08 DIIS
   @DF-RKS iter   6: -1642.02474287238124   -1.34150e-11   1.03628e-08 DIIS
   @DF-RKS iter   7: -1642.02474287238078    4.54747e-13   1.59196e-09 DIIS
  Energy and wave function converged.


  ==> Post-Iterations <==

   Electrons on quadrature grid:
      Ntotal   =   29.9999999296 ; deviation = -7.042e-08 

    Orbital Energies [Eh]
    ---------------------

    Doubly Occupied:                                                      

       1A1  -320.898119     2A1   -38.372672     3A1   -33.773011  
       1B2   -33.769334     1B1   -33.769334     4A1    -4.140467  
       5A1    -2.682880     2B2    -2.673373     2B1    -2.673373  
       6A1    -0.294680     3B1    -0.224226     3B2    -0.224226  
       7A1    -0.216899     1A2    -0.216899     8A1    -0.198341  

    Virtual:                                                              

       9A1    -0.100722     4B1    -0.021477     4B2    -0.021477  
      10A1     0.059047    11A1     0.071090     5B1     0.122795  
       5B2     0.122795    12A1     0.129819     6B1     0.154091  
       6B2     0.154091     2A2     0.166988    13A1     0.166988  
      14A1     0.268787     7B1     0.280966     7B2     0.280966  
      15A1     0.339942    16A1     0.426396     8B2     0.633427  
       8B1     0.633427    17A1     0.672274     9B1     0.764410  
       9B2     0.764410    18A1     0.848171     3A2     0.848171  
      19A1     0.976526    10B1     1.058870    10B2     1.058870  
      20A1     1.245577    21A1     2.396853    22A1     2.612351  
      11B1     2.881762    11B2     2.881762    12B2     2.935463  
      12B1     2.935463    23A1     3.088654     4A2     3.088670  
      24A1     3.120603    25A1     3.211717    13B1     3.360932  
      13B2     3.360932    26A1     3.445103     5A2     3.445103  
      27A1     3.558557     6A2     3.558557    14B1     3.566937  
      14B2     3.566937    28A1     3.685964    15B2     3.760034  
      15B1     3.760034    16B2     4.088489    16B1     4.088489  
      29A1     4.195632    30A1     5.169933    31A1    12.747513  
       7A2    12.747513    17B1    12.750552    17B2    12.750552  
       8A2    12.754479    32A1    12.754479    18B2    12.755583  
      18B1    12.755583    33A1    12.762547    19B1    12.881525  
      19B2    12.881525    34A1    12.883705     9A2    12.883706  
      20B1    12.980596    20B2    12.980596    35A1    13.210204  

    Final Occupation by Irrep:
             A1    A2    B1    B2 
    DOCC [     8,    1,    3,    3 ]

  @DF-RKS Final Energy: -1642.02474287238078

   => Energetics <=

    Nuclear Repulsion Energy =             10.5382381777521985
    One-Electron Energy =               -2312.1025566692792381
    Two-Electron Energy =                 728.2359823195641866
    DFT Exchange-Correlation Energy =     -68.6964067004178958
    Empirical Dispersion Energy =           0.0000000000000000
    VV10 Nonlocal Energy =                  0.0000000000000000
    Total Energy =                      -1642.0247428723805569

Computation Completed


Properties will be evaluated at   0.000000,   0.000000,   0.000000 [a0]

Properties computed using the SCF density matrix

  Nuclear Dipole Moment: [e a0]
     X:     0.0000      Y:     0.0000      Z:    -1.4506

  Electronic Dipole Moment: [e a0]
     X:     0.0000      Y:     0.0000      Z:     2.4075

  Dipole Moment: [e a0]
     X:     0.0000      Y:     0.0000      Z:     0.9569     Total:     0.9569

  Dipole Moment: [D]
     X:     0.0000      Y:     0.0000      Z:     2.4321     Total:     2.4321


*** tstop() called on compute224.bc4.acrc.priv at Mon Nov  1 16:09:27 2021
Module time:
	user time   =      18.00 seconds =       0.30 minutes
	system time =       0.55 seconds =       0.01 minutes
	total time  =          1 seconds =       0.02 minutes
Total time:
	user time   =      78.80 seconds =       1.31 minutes
	system time =       6.54 seconds =       0.11 minutes
	total time  =          9 seconds =       0.15 minutes

*** tstart() called on compute224.bc4.acrc.priv
*** at Mon Nov  1 16:09:27 2021


         ------------------------------------------------------------
                                   SCF GRAD                          
                          Rob Parrish, Justin Turney,                
                       Andy Simmonett, and Alex Sokolov              
         ------------------------------------------------------------

  ==> Geometry <==

    Molecular point group: c2v
    Full point group: C_inf_v

    Geometry (in Angstrom), charge = 0, multiplicity = 1:

       Center              X                  Y                   Z               Mass       
    ------------   -----------------  -----------------  -----------------  -----------------
         CU           0.000000000000     0.000000000000     0.022954145779    62.929597720000
         H            0.000000000000     0.000000000000    -1.433279700010     1.007825032230

  Nuclear repulsion =   10.538238177752199

  ==> Basis Set <==

  Basis Set: DEF2-TZVPPD
    Blend: DEF2-TZVPPD
    Number of shells: 26
    Number of basis functions: 84
    Number of Cartesian functions: 101
    Spherical Harmonics?: true
    Max angular momentum: 4

  ==> DFJKGrad: Density-Fitted SCF Gradients <==

    Gradient:                    1
    J tasked:                  Yes
    K tasked:                   No
    wK tasked:                  No
    OpenMP threads:             28
    Integrals threads:          28
    Memory [MiB]:           102996
    Schwarz Cutoff:          1E-12
    Fitting Condition:       1E-10

   => Auxiliary Basis Set <=

  Basis Set: (DEF2-TZVPPD AUX)
    Blend: DEF2-UNIVERSAL-JKFIT
    Number of shells: 64
    Number of basis functions: 282
    Number of Cartesian functions: 397
    Spherical Harmonics?: true
    Max angular momentum: 6

  ==> DFT Potential <==

   => Composite Functional: GAM <= 

   GAM GGA Minessota Exchange-Correlation Functional

    H.S. Yu, et al., Phys. Chem. Chem. Phys. 17, 12146, 2015


    Deriv               =              1
    GGA                 =           TRUE
    Meta                =          FALSE

    Exchange Hybrid     =          FALSE
    MP2 Hybrid          =          FALSE

   => Exchange Functionals <=

    1.0000     XC_GGA_X_GAM

   => Correlation Functionals <=

    1.0000     XC_GGA_C_GAM

   => LibXC Density Thresholds  <==

    XC_GGA_C_GAM:  1.00E-14 
    XC_GGA_X_GAM:  1.00E-14 

   => Molecular Quadrature <=

    Radial Scheme          =       TREUTLER
    Pruning Scheme         =           NONE
    Nuclear Scheme         =       TREUTLER

    BS radius alpha        =              1
    Pruning alpha          =              1
    Radial Points          =             75
    Spherical Points       =            302
    Total Points           =          43978
    Total Blocks           =            406
    Max Points             =            255
    Max Functions          =             84
    Weights Tolerance      =       1.00E-15


  -Total Gradient:
     Atom            X                  Y                   Z
    ------   -----------------  -----------------  -----------------
       1       -0.000000000000    -0.000000000000    -0.008800864971
       2        0.000000000000    -0.000000000000     0.008288036957


*** tstop() called on compute224.bc4.acrc.priv at Mon Nov  1 16:09:32 2021
Module time:
	user time   =      28.80 seconds =       0.48 minutes
	system time =       0.95 seconds =       0.02 minutes
	total time  =          5 seconds =       0.08 minutes
Total time:
	user time   =     107.65 seconds =       1.79 minutes
	system time =       7.49 seconds =       0.12 minutes
	total time  =         14 seconds =       0.23 minutes

			-----------------------------------------
			 OPTKING 2.0: for geometry optimizations 
			  - R.A. King,  Bethel University        
			-----------------------------------------
	At level 1: Red. Int., RFO, no backsteps, dynamic trust

	Previous internal coordinate definitions found.
	---Fragment 1 Geometry and Gradient---
	 CU          0.0000000000        0.0000000000        0.0433770490
	 H           0.0000000000        0.0000000000       -2.7085060942
	            -0.0000000000       -0.0000000000       -0.0088008650
	             0.0000000000       -0.0000000000        0.0082880370

	---Fragment 1 Intrafragment Coordinates---
	 - Coordinate -           - BOHR/RAD -       - ANG/DEG -
	 R(1,2)           =         2.751883	       1.456234

	Current energy   :     -1642.0247428724

	Energy change for the previous step:
		Projected    :        -0.0000128220
		Actual       :        -0.0000135046
	Energy ratio indicates good step: Trust radius increased to 1.000e+00.


	Performing BFGS update.
	Previous computed or guess Hessian on step 1.
	Steps to be used in Hessian update: 1
	Taking RFO optimization step.
	Going to follow RFO solution 1.
	Using RFO vector 1.
	Norm of target step-size    0.00313
	Projected energy change by RFO approximation:        -0.0000218453

	Back-transformation to cartesian coordinates...
	Successfully converged to displaced geometry.

	--- Internal Coordinate Step in ANG or DEG, aJ/ANG or AJ/DEG ---
	 ---------------------------------------------------------------------------
	   Coordinate                Previous        Force       Change         New 
	   ----------                --------       ------       ------       ------
	    1 R(1,2)          =      1.456234     0.070395     0.001656     1.457890
	 ---------------------------------------------------------------------------
	Successfully symmetrized geometry.

  ==> Convergence Check <==

  Measures of convergence in internal coordinates in au.
  Criteria marked as inactive (o), active & met (*), and active & unmet ( ).
  ---------------------------------------------------------------------------------------------
   Step     Total Energy     Delta E     MAX Force     RMS Force      MAX Disp      RMS Disp   
  ---------------------------------------------------------------------------------------------
    Convergence Criteria    1.00e-06 *    3.00e-04 *             o    1.20e-03 *             o
  ---------------------------------------------------------------------------------------------
      2   -1642.02474287   -1.35e-05      8.54e-03      8.54e-03 o    3.13e-03      3.13e-03 o  ~
  ---------------------------------------------------------------------------------------------

	Writing optimization data to binary file.
	Structure for next step:
	Cartesian Geometry (in Angstrom)
	   CU     0.0000000000   0.0000000000   0.0237822992
	    H     0.0000000000   0.0000000000  -1.4341078479
			--------------------------
			 OPTKING Finished Execution 
			--------------------------

    Structure for next step:
    Molecular point group: c2v
    Full point group: C_inf_v

    Geometry (in Angstrom), charge = 0, multiplicity = 1:

    CU           0.000000000000     0.000000000000     0.022980253614
    H            0.000000000000     0.000000000000    -1.434909899212


Scratch directory: /tmp/
gradient() will perform analytic gradient computation.

*** tstart() called on compute224.bc4.acrc.priv
*** at Mon Nov  1 16:09:32 2021

   => Loading Basis Set <=

    Name: DEF2-TZVPPD
    Role: ORBITAL
    Keyword: BASIS
    atoms 1 entry CU         line  1290 file /mnt/storage/home/zw18965/.conda/envs/p4env/share/psi4/basis/def2-tzvppd.gbs 
    atoms 2 entry H          line    14 file /mnt/storage/home/zw18965/.conda/envs/p4env/share/psi4/basis/def2-tzvppd.gbs 


         ---------------------------------------------------------
                                   SCF
               by Justin Turney, Rob Parrish, Andy Simmonett
                          and Daniel G. A. Smith
                              RKS Reference
                       28 Threads, 137329 MiB Core
         ---------------------------------------------------------

  ==> Geometry <==

    Molecular point group: c2v
    Full point group: C_inf_v

    Geometry (in Angstrom), charge = 0, multiplicity = 1:

       Center              X                  Y                   Z               Mass       
    ------------   -----------------  -----------------  -----------------  -----------------
         CU           0.000000000000     0.000000000000     0.022980253614    62.929597720000
         H            0.000000000000     0.000000000000    -1.434909899212     1.007825032230

  Running in c2v symmetry.

  Rotational constants: A = ************  B =      7.99580  C =      7.99580 [cm^-1]
  Rotational constants: A = ************  B = 239708.05273  C = 239708.05273 [MHz]
  Nuclear repulsion =   10.526265699570807

  Charge       = 0
  Multiplicity = 1
  Electrons    = 30
  Nalpha       = 15
  Nbeta        = 15

  ==> Algorithm <==

  SCF Algorithm Type is DF.
  DIIS enabled.
  MOM disabled.
  Fractional occupation disabled.
  Guess Type is READ.
  Energy threshold   = 1.00e-08
  Density threshold  = 1.00e-08
  Integral threshold = 1.00e-12

  ==> Primary Basis <==

  Basis Set: DEF2-TZVPPD
    Blend: DEF2-TZVPPD
    Number of shells: 26
    Number of basis functions: 84
    Number of Cartesian functions: 101
    Spherical Harmonics?: true
    Max angular momentum: 4

  ==> DFT Potential <==

   => Composite Functional: GAM <= 

   GAM GGA Minessota Exchange-Correlation Functional

    H.S. Yu, et al., Phys. Chem. Chem. Phys. 17, 12146, 2015


    Deriv               =              1
    GGA                 =           TRUE
    Meta                =          FALSE

    Exchange Hybrid     =          FALSE
    MP2 Hybrid          =          FALSE

   => Exchange Functionals <=

    1.0000     XC_GGA_X_GAM

   => Correlation Functionals <=

    1.0000     XC_GGA_C_GAM

   => LibXC Density Thresholds  <==

    XC_GGA_C_GAM:  1.00E-14 
    XC_GGA_X_GAM:  1.00E-14 

   => Molecular Quadrature <=

    Radial Scheme          =       TREUTLER
    Pruning Scheme         =           NONE
    Nuclear Scheme         =       TREUTLER

    BS radius alpha        =              1
    Pruning alpha          =              1
    Radial Points          =             75
    Spherical Points       =            302
    Total Points           =          43980
    Total Blocks           =            405
    Max Points             =            254
    Max Functions          =             84
    Weights Tolerance      =       1.00E-15

   => Loading Basis Set <=

    Name: (DEF2-TZVPPD AUX)
    Role: JKFIT
    Keyword: DF_BASIS_SCF
    atoms 1 entry CU         line  2356 file /mnt/storage/home/zw18965/.conda/envs/p4env/share/psi4/basis/def2-universal-jkfit.gbs 
    atoms 2 entry H          line    18 file /mnt/storage/home/zw18965/.conda/envs/p4env/share/psi4/basis/def2-universal-jkfit.gbs 

   => Loading Basis Set <=

    Name: DEF2-TZVPPD
    Role: ORBITAL
    Keyword: BASIS
    atoms 1 entry CU         line  1290 file /mnt/storage/home/zw18965/.conda/envs/p4env/share/psi4/basis/def2-tzvppd.gbs 
    atoms 2 entry H          line    14 file /mnt/storage/home/zw18965/.conda/envs/p4env/share/psi4/basis/def2-tzvppd.gbs 

  Reading orbitals from file /tmp/Cu01N0_H.default.13241.180.npy, no projection.

  ==> Integral Setup <==

  DFHelper Memory: AOs need 0.019 GiB; user supplied 100.493 GiB. Using in-core AOs.

  ==> MemDFJK: Density-Fitted J/K Matrices <==

    J tasked:                   Yes
    K tasked:                    No
    wK tasked:                   No
    OpenMP threads:              28
    Memory [MiB]:            102904
    Algorithm:                 Core
    Schwarz Cutoff:           1E-12
    Mask sparsity (%):       0.0000
    Fitting Condition:        1E-10

   => Auxiliary Basis Set <=

  Basis Set: (DEF2-TZVPPD AUX)
    Blend: DEF2-UNIVERSAL-JKFIT
    Number of shells: 64
    Number of basis functions: 282
    Number of Cartesian functions: 397
    Spherical Harmonics?: true
    Max angular momentum: 6

  Cached 100.0% of DFT collocation blocks in 0.090 [GiB].

  Minimum eigenvalue in the overlap matrix is 2.0099159926E-03.
  Reciprocal condition number of the overlap matrix is 4.7090593229E-04.
    Using symmetric orthogonalization.

  ==> Pre-Iterations <==

  SCF Guess: Orbitals guess was supplied from a previous computation.

   -------------------------------------------------------
    Irrep   Nso     Nmo     Nalpha   Nbeta   Ndocc  Nsocc
   -------------------------------------------------------
     A1        35      35       8       8       8       0
     A2         9       9       1       1       1       0
     B1        20      20       3       3       3       0
     B2        20      20       3       3       3       0
   -------------------------------------------------------
    Total      84      84      15      15      15       0
   -------------------------------------------------------

  ==> Iterations <==

                           Total Energy        Delta E     RMS |[F,P]|

   @DF-RKS iter   0: -1642.02463704099364   -1.64202e+03   7.88764e-05 
   @DF-RKS iter   1: -1642.02476780905295   -1.30768e-04   1.88130e-05 DIIS
   @DF-RKS iter   2: -1642.02476599183069    1.81722e-06   6.95288e-05 DIIS
   @DF-RKS iter   3: -1642.02476798878979   -1.99696e-06   8.37702e-06 DIIS
   @DF-RKS iter   4: -1642.02476808316487   -9.43751e-08   3.00034e-06 DIIS
   @DF-RKS iter   5: -1642.02476808735651   -4.19163e-09   1.55801e-07 DIIS
   @DF-RKS iter   6: -1642.02476808739971   -4.32010e-11   2.01436e-08 DIIS
   @DF-RKS iter   7: -1642.02476808740107   -1.36424e-12   3.07935e-09 DIIS
  Energy and wave function converged.


  ==> Post-Iterations <==

   Electrons on quadrature grid:
      Ntotal   =   29.9999999231 ; deviation = -7.693e-08 

    Orbital Energies [Eh]
    ---------------------

    Doubly Occupied:                                                      

       1A1  -320.898051     2A1   -38.372585     3A1   -33.772914  
       1B1   -33.769254     1B2   -33.769254     4A1    -4.140390  
       5A1    -2.682769     2B1    -2.673312     2B2    -2.673312  
       6A1    -0.294426     3B1    -0.224143     3B2    -0.224143  
       7A1    -0.216853     1A2    -0.216853     8A1    -0.198334  

    Virtual:                                                              

       9A1    -0.100792     4B2    -0.021475     4B1    -0.021475  
      10A1     0.059066    11A1     0.071048     5B1     0.122803  
       5B2     0.122803    12A1     0.129743     6B2     0.154057  
       6B1     0.154057     2A2     0.166988    13A1     0.166988  
      14A1     0.268732     7B1     0.280893     7B2     0.280893  
      15A1     0.339705    16A1     0.426456     8B2     0.633457  
       8B1     0.633457    17A1     0.672139     9B2     0.764317  
       9B1     0.764317    18A1     0.848182     3A2     0.848182  
      19A1     0.976149    10B1     1.058649    10B2     1.058649  
      20A1     1.245798    21A1     2.396999    22A1     2.612603  
      11B1     2.883014    11B2     2.883014    12B1     2.935237  
      12B2     2.935237    23A1     3.089456     4A2     3.089473  
      24A1     3.120694    25A1     3.211380    13B1     3.360950  
      13B2     3.360950    26A1     3.444294     5A2     3.444294  
      27A1     3.558621     6A2     3.558622    14B2     3.567122  
      14B1     3.567122    28A1     3.686037    15B2     3.759086  
      15B1     3.759086    16B1     4.085854    16B2     4.085854  
      29A1     4.193000    30A1     5.164435    31A1    12.747568  
       7A2    12.747568    17B1    12.750608    17B2    12.750608  
       8A2    12.754518    32A1    12.754519    18B2    12.755560  
      18B1    12.755560    33A1    12.762472    19B2    12.881583  
      19B1    12.881583    34A1    12.883722     9A2    12.883723  
      20B2    12.979759    20B1    12.979759    35A1    13.209476  

    Final Occupation by Irrep:
             A1    A2    B1    B2 
    DOCC [     8,    1,    3,    3 ]

  @DF-RKS Final Energy: -1642.02476808740107

   => Energetics <=

    Nuclear Repulsion Energy =             10.5262656995708070
    One-Electron Energy =               -2312.0812486022718986
    Two-Electron Energy =                 728.2264506801915331
    DFT Exchange-Correlation Energy =     -68.6962358648916620
    Empirical Dispersion Energy =           0.0000000000000000
    VV10 Nonlocal Energy =                  0.0000000000000000
    Total Energy =                      -1642.0247680874008438

Computation Completed


Properties will be evaluated at   0.000000,   0.000000,   0.000000 [a0]

Properties computed using the SCF density matrix

  Nuclear Dipole Moment: [e a0]
     X:     0.0000      Y:     0.0000      Z:    -1.4522

  Electronic Dipole Moment: [e a0]
     X:     0.0000      Y:     0.0000      Z:     2.4097

  Dipole Moment: [e a0]
     X:     0.0000      Y:     0.0000      Z:     0.9575     Total:     0.9575

  Dipole Moment: [D]
     X:     0.0000      Y:     0.0000      Z:     2.4338     Total:     2.4338


*** tstop() called on compute224.bc4.acrc.priv at Mon Nov  1 16:09:32 2021
Module time:
	user time   =      17.19 seconds =       0.29 minutes
	system time =       0.36 seconds =       0.01 minutes
	total time  =          0 seconds =       0.00 minutes
Total time:
	user time   =     125.38 seconds =       2.09 minutes
	system time =       7.87 seconds =       0.13 minutes
	total time  =         14 seconds =       0.23 minutes

*** tstart() called on compute224.bc4.acrc.priv
*** at Mon Nov  1 16:09:32 2021


         ------------------------------------------------------------
                                   SCF GRAD                          
                          Rob Parrish, Justin Turney,                
                       Andy Simmonett, and Alex Sokolov              
         ------------------------------------------------------------

  ==> Geometry <==

    Molecular point group: c2v
    Full point group: C_inf_v

    Geometry (in Angstrom), charge = 0, multiplicity = 1:

       Center              X                  Y                   Z               Mass       
    ------------   -----------------  -----------------  -----------------  -----------------
         CU           0.000000000000     0.000000000000     0.022980253614    62.929597720000
         H            0.000000000000     0.000000000000    -1.434909899212     1.007825032230

  Nuclear repulsion =   10.526265699570807

  ==> Basis Set <==

  Basis Set: DEF2-TZVPPD
    Blend: DEF2-TZVPPD
    Number of shells: 26
    Number of basis functions: 84
    Number of Cartesian functions: 101
    Spherical Harmonics?: true
    Max angular momentum: 4

  ==> DFJKGrad: Density-Fitted SCF Gradients <==

    Gradient:                    1
    J tasked:                  Yes
    K tasked:                   No
    wK tasked:                  No
    OpenMP threads:             28
    Integrals threads:          28
    Memory [MiB]:           102996
    Schwarz Cutoff:          1E-12
    Fitting Condition:       1E-10

   => Auxiliary Basis Set <=

  Basis Set: (DEF2-TZVPPD AUX)
    Blend: DEF2-UNIVERSAL-JKFIT
    Number of shells: 64
    Number of basis functions: 282
    Number of Cartesian functions: 397
    Spherical Harmonics?: true
    Max angular momentum: 6

  ==> DFT Potential <==

   => Composite Functional: GAM <= 

   GAM GGA Minessota Exchange-Correlation Functional

    H.S. Yu, et al., Phys. Chem. Chem. Phys. 17, 12146, 2015


    Deriv               =              1
    GGA                 =           TRUE
    Meta                =          FALSE

    Exchange Hybrid     =          FALSE
    MP2 Hybrid          =          FALSE

   => Exchange Functionals <=

    1.0000     XC_GGA_X_GAM

   => Correlation Functionals <=

    1.0000     XC_GGA_C_GAM

   => LibXC Density Thresholds  <==

    XC_GGA_C_GAM:  1.00E-14 
    XC_GGA_X_GAM:  1.00E-14 

   => Molecular Quadrature <=

    Radial Scheme          =       TREUTLER
    Pruning Scheme         =           NONE
    Nuclear Scheme         =       TREUTLER

    BS radius alpha        =              1
    Pruning alpha          =              1
    Radial Points          =             75
    Spherical Points       =            302
    Total Points           =          43980
    Total Blocks           =            405
    Max Points             =            254
    Max Functions          =             84
    Weights Tolerance      =       1.00E-15


  -Total Gradient:
     Atom            X                  Y                   Z
    ------   -----------------  -----------------  -----------------
       1        0.000000000000     0.000000000000    -0.008346094943
       2        0.000000000000    -0.000000000000     0.007836679058


*** tstop() called on compute224.bc4.acrc.priv at Mon Nov  1 16:09:37 2021
Module time:
	user time   =      28.85 seconds =       0.48 minutes
	system time =       0.66 seconds =       0.01 minutes
	total time  =          5 seconds =       0.08 minutes
Total time:
	user time   =     154.28 seconds =       2.57 minutes
	system time =       8.53 seconds =       0.14 minutes
	total time  =         19 seconds =       0.32 minutes

			-----------------------------------------
			 OPTKING 2.0: for geometry optimizations 
			  - R.A. King,  Bethel University        
			-----------------------------------------
	At level 1: Red. Int., RFO, no backsteps, dynamic trust

	Previous internal coordinate definitions found.
	---Fragment 1 Geometry and Gradient---
	 CU          0.0000000000        0.0000000000        0.0434263856
	 H           0.0000000000        0.0000000000       -2.7115867242
	             0.0000000000        0.0000000000       -0.0083460949
	             0.0000000000       -0.0000000000        0.0078366791

	---Fragment 1 Intrafragment Coordinates---
	 - Coordinate -           - BOHR/RAD -       - ANG/DEG -
	 R(1,2)           =         2.755013	       1.457890

	Current energy   :     -1642.0247680874

	Energy change for the previous step:
		Projected    :        -0.0000218453
		Actual       :        -0.0000252150

	Performing BFGS update.
	Previous computed or guess Hessian on step 1.
	Steps to be used in Hessian update: 2 1
	Taking RFO optimization step.
	Going to follow RFO solution 1.
	Using RFO vector 1.
	Norm of target step-size    0.02216
	Projected energy change by RFO approximation:         0.0000662174

	Back-transformation to cartesian coordinates...
	Successfully converged to displaced geometry.

	--- Internal Coordinate Step in ANG or DEG, aJ/ANG or AJ/DEG ---
	 ---------------------------------------------------------------------------
	   Coordinate                Previous        Force       Change         New 
	   ----------                --------       ------       ------       ------
	    1 R(1,2)          =      1.457890     0.066663     0.011727     1.469618
	 ---------------------------------------------------------------------------
	Successfully symmetrized geometry.

  ==> Convergence Check <==

  Measures of convergence in internal coordinates in au.
  Criteria marked as inactive (o), active & met (*), and active & unmet ( ).
  ---------------------------------------------------------------------------------------------
   Step     Total Energy     Delta E     MAX Force     RMS Force      MAX Disp      RMS Disp   
  ---------------------------------------------------------------------------------------------
    Convergence Criteria    1.00e-06 *    3.00e-04 *             o    1.20e-03 *             o
  ---------------------------------------------------------------------------------------------
      3   -1642.02476809   -2.52e-05      8.09e-03      8.09e-03 o    2.22e-02      2.22e-02 o  ~
  ---------------------------------------------------------------------------------------------

	Writing optimization data to binary file.
	Structure for next step:
	Cartesian Geometry (in Angstrom)
	   CU     0.0000000000   0.0000000000   0.0288439553
	    H     0.0000000000   0.0000000000  -1.4407735953
			--------------------------
			 OPTKING Finished Execution 
			--------------------------

    Structure for next step:
    Molecular point group: c2v
    Full point group: C_inf_v

    Geometry (in Angstrom), charge = 0, multiplicity = 1:

    CU           0.000000000000     0.000000000000     0.023165108904
    H            0.000000000000     0.000000000000    -1.446452447471


Scratch directory: /tmp/
gradient() will perform analytic gradient computation.

*** tstart() called on compute224.bc4.acrc.priv
*** at Mon Nov  1 16:09:37 2021

   => Loading Basis Set <=

    Name: DEF2-TZVPPD
    Role: ORBITAL
    Keyword: BASIS
    atoms 1 entry CU         line  1290 file /mnt/storage/home/zw18965/.conda/envs/p4env/share/psi4/basis/def2-tzvppd.gbs 
    atoms 2 entry H          line    14 file /mnt/storage/home/zw18965/.conda/envs/p4env/share/psi4/basis/def2-tzvppd.gbs 


         ---------------------------------------------------------
                                   SCF
               by Justin Turney, Rob Parrish, Andy Simmonett
                          and Daniel G. A. Smith
                              RKS Reference
                       28 Threads, 137329 MiB Core
         ---------------------------------------------------------

  ==> Geometry <==

    Molecular point group: c2v
    Full point group: C_inf_v

    Geometry (in Angstrom), charge = 0, multiplicity = 1:

       Center              X                  Y                   Z               Mass       
    ------------   -----------------  -----------------  -----------------  -----------------
         CU           0.000000000000     0.000000000000     0.023165108904    62.929597720000
         H            0.000000000000     0.000000000000    -1.446452447471     1.007825032230

  Running in c2v symmetry.

  Rotational constants: A = ************  B =      7.86870  C =      7.86870 [cm^-1]
  Rotational constants: A = ************  B = 235897.62369  C = 235897.62369 [MHz]
  Nuclear repulsion =   10.442267134640968

  Charge       = 0
  Multiplicity = 1
  Electrons    = 30
  Nalpha       = 15
  Nbeta        = 15

  ==> Algorithm <==

  SCF Algorithm Type is DF.
  DIIS enabled.
  MOM disabled.
  Fractional occupation disabled.
  Guess Type is READ.
  Energy threshold   = 1.00e-08
  Density threshold  = 1.00e-08
  Integral threshold = 1.00e-12

  ==> Primary Basis <==

  Basis Set: DEF2-TZVPPD
    Blend: DEF2-TZVPPD
    Number of shells: 26
    Number of basis functions: 84
    Number of Cartesian functions: 101
    Spherical Harmonics?: true
    Max angular momentum: 4

  ==> DFT Potential <==

   => Composite Functional: GAM <= 

   GAM GGA Minessota Exchange-Correlation Functional

    H.S. Yu, et al., Phys. Chem. Chem. Phys. 17, 12146, 2015


    Deriv               =              1
    GGA                 =           TRUE
    Meta                =          FALSE

    Exchange Hybrid     =          FALSE
    MP2 Hybrid          =          FALSE

   => Exchange Functionals <=

    1.0000     XC_GGA_X_GAM

   => Correlation Functionals <=

    1.0000     XC_GGA_C_GAM

   => LibXC Density Thresholds  <==

    XC_GGA_C_GAM:  1.00E-14 
    XC_GGA_X_GAM:  1.00E-14 

   => Molecular Quadrature <=

    Radial Scheme          =       TREUTLER
    Pruning Scheme         =           NONE
    Nuclear Scheme         =       TREUTLER

    BS radius alpha        =              1
    Pruning alpha          =              1
    Radial Points          =             75
    Spherical Points       =            302
    Total Points           =          43983
    Total Blocks           =            404
    Max Points             =            255
    Max Functions          =             84
    Weights Tolerance      =       1.00E-15

   => Loading Basis Set <=

    Name: (DEF2-TZVPPD AUX)
    Role: JKFIT
    Keyword: DF_BASIS_SCF
    atoms 1 entry CU         line  2356 file /mnt/storage/home/zw18965/.conda/envs/p4env/share/psi4/basis/def2-universal-jkfit.gbs 
    atoms 2 entry H          line    18 file /mnt/storage/home/zw18965/.conda/envs/p4env/share/psi4/basis/def2-universal-jkfit.gbs 

   => Loading Basis Set <=

    Name: DEF2-TZVPPD
    Role: ORBITAL
    Keyword: BASIS
    atoms 1 entry CU         line  1290 file /mnt/storage/home/zw18965/.conda/envs/p4env/share/psi4/basis/def2-tzvppd.gbs 
    atoms 2 entry H          line    14 file /mnt/storage/home/zw18965/.conda/envs/p4env/share/psi4/basis/def2-tzvppd.gbs 

  Reading orbitals from file /tmp/Cu01N0_H.default.13241.180.npy, no projection.

  ==> Integral Setup <==

  DFHelper Memory: AOs need 0.019 GiB; user supplied 100.493 GiB. Using in-core AOs.

  ==> MemDFJK: Density-Fitted J/K Matrices <==

    J tasked:                   Yes
    K tasked:                    No
    wK tasked:                   No
    OpenMP threads:              28
    Memory [MiB]:            102904
    Algorithm:                 Core
    Schwarz Cutoff:           1E-12
    Mask sparsity (%):       0.0000
    Fitting Condition:        1E-10

   => Auxiliary Basis Set <=

  Basis Set: (DEF2-TZVPPD AUX)
    Blend: DEF2-UNIVERSAL-JKFIT
    Number of shells: 64
    Number of basis functions: 282
    Number of Cartesian functions: 397
    Spherical Harmonics?: true
    Max angular momentum: 6

  Cached 100.0% of DFT collocation blocks in 0.090 [GiB].

  Minimum eigenvalue in the overlap matrix is 2.1036847188E-03.
  Reciprocal condition number of the overlap matrix is 4.9362211199E-04.
    Using symmetric orthogonalization.

  ==> Pre-Iterations <==

  SCF Guess: Orbitals guess was supplied from a previous computation.

   -------------------------------------------------------
    Irrep   Nso     Nmo     Nalpha   Nbeta   Ndocc  Nsocc
   -------------------------------------------------------
     A1        35      35       8       8       8       0
     A2         9       9       1       1       1       0
     B1        20      20       3       3       3       0
     B2        20      20       3       3       3       0
   -------------------------------------------------------
    Total      84      84      15      15      15       0
   -------------------------------------------------------

  ==> Iterations <==

                           Total Energy        Delta E     RMS |[F,P]|

   @DF-RKS iter   0: -1642.02401363737772   -1.64202e+03   5.47915e-04 
   @DF-RKS iter   1: -1642.02489305421227   -8.79417e-04   1.32297e-04 DIIS
   @DF-RKS iter   2: -1642.02480244123308    9.06130e-05   4.89263e-04 DIIS
   @DF-RKS iter   3: -1642.02490198247415   -9.95412e-05   5.94532e-05 DIIS
   @DF-RKS iter   4: -1642.02490678734011   -4.80487e-06   2.11784e-05 DIIS
   @DF-RKS iter   5: -1642.02490699687019   -2.09530e-07   1.06869e-06 DIIS
   @DF-RKS iter   6: -1642.02490699898635   -2.11617e-09   1.39101e-07 DIIS
   @DF-RKS iter   7: -1642.02490699902182   -3.54703e-11   2.05553e-08 DIIS
   @DF-RKS iter   8: -1642.02490699902205   -2.27374e-13   4.67413e-09 DIIS
  Energy and wave function converged.


  ==> Post-Iterations <==

   Electrons on quadrature grid:
      Ntotal   =   29.9999998730 ; deviation = -1.270e-07 

    Orbital Energies [Eh]
    ---------------------

    Doubly Occupied:                                                      

       1A1  -320.897583     2A1   -38.371980     3A1   -33.772239  
       1B1   -33.768704     1B2   -33.768704     4A1    -4.139853  
       5A1    -2.682005     2B2    -2.672892     2B1    -2.672892  
       6A1    -0.292645     3B2    -0.223572     3B1    -0.223572  
       7A1    -0.216541     1A2    -0.216541     8A1    -0.198284  

    Virtual:                                                              

       9A1    -0.101285     4B1    -0.021463     4B2    -0.021463  
      10A1     0.059198    11A1     0.070749     5B1     0.122856  
       5B2     0.122856    12A1     0.129204     6B2     0.153808  
       6B1     0.153808     2A2     0.166991    13A1     0.166991  
      14A1     0.268342     7B2     0.280371     7B1     0.280371  
      15A1     0.338012    16A1     0.426892     8B1     0.633667  
       8B2     0.633667    17A1     0.671192     9B1     0.763669  
       9B2     0.763669    18A1     0.848252     3A2     0.848252  
      19A1     0.973458    10B1     1.057066    10B2     1.057066  
      20A1     1.247201    21A1     2.398083    22A1     2.614722  
      11B2     2.891815    11B1     2.891815    12B1     2.933853  
      12B2     2.933853    23A1     3.095020     4A2     3.095042  
      24A1     3.121176    25A1     3.208982    13B2     3.361071  
      13B1     3.361071    26A1     3.438704     5A2     3.438706  
      27A1     3.559058     6A2     3.559059    14B1     3.568460  
      14B2     3.568460    28A1     3.686550    15B1     3.752153  
      15B2     3.752153    16B2     4.067692    16B1     4.067692  
      29A1     4.174528    30A1     5.125929     7A2    12.747954  
      31A1    12.747954    17B1    12.750992    17B2    12.750992  
       8A2    12.754790    32A1    12.754791    18B2    12.755401  
      18B1    12.755401    33A1    12.761970    19B2    12.881984  
      19B1    12.881984    34A1    12.883855     9A2    12.883856  
      20B1    12.974011    20B2    12.974011    35A1    13.204178  

    Final Occupation by Irrep:
             A1    A2    B1    B2 
    DOCC [     8,    1,    3,    3 ]

  @DF-RKS Final Energy: -1642.02490699902205

   => Energetics <=

    Nuclear Repulsion Energy =             10.4422671346409679
    One-Electron Energy =               -2311.9314824734965441
    Two-Electron Energy =                 728.1593516949687910
    DFT Exchange-Correlation Energy =     -68.6950433551353257
    Empirical Dispersion Energy =           0.0000000000000000
    VV10 Nonlocal Energy =                  0.0000000000000000
    Total Energy =                      -1642.0249069990220505

Computation Completed


Properties will be evaluated at   0.000000,   0.000000,   0.000000 [a0]

Properties computed using the SCF density matrix

  Nuclear Dipole Moment: [e a0]
     X:     0.0000      Y:     0.0000      Z:    -1.4639

  Electronic Dipole Moment: [e a0]
     X:     0.0000      Y:     0.0000      Z:     2.4260

  Dipole Moment: [e a0]
     X:     0.0000      Y:     0.0000      Z:     0.9621     Total:     0.9621

  Dipole Moment: [D]
     X:     0.0000      Y:     0.0000      Z:     2.4453     Total:     2.4453


*** tstop() called on compute224.bc4.acrc.priv at Mon Nov  1 16:09:38 2021
Module time:
	user time   =      18.23 seconds =       0.30 minutes
	system time =       0.56 seconds =       0.01 minutes
	total time  =          1 seconds =       0.02 minutes
Total time:
	user time   =     172.97 seconds =       2.88 minutes
	system time =       9.11 seconds =       0.15 minutes
	total time  =         20 seconds =       0.33 minutes

*** tstart() called on compute224.bc4.acrc.priv
*** at Mon Nov  1 16:09:38 2021


         ------------------------------------------------------------
                                   SCF GRAD                          
                          Rob Parrish, Justin Turney,                
                       Andy Simmonett, and Alex Sokolov              
         ------------------------------------------------------------

  ==> Geometry <==

    Molecular point group: c2v
    Full point group: C_inf_v

    Geometry (in Angstrom), charge = 0, multiplicity = 1:

       Center              X                  Y                   Z               Mass       
    ------------   -----------------  -----------------  -----------------  -----------------
         CU           0.000000000000     0.000000000000     0.023165108904    62.929597720000
         H            0.000000000000     0.000000000000    -1.446452447471     1.007825032230

  Nuclear repulsion =   10.442267134640970

  ==> Basis Set <==

  Basis Set: DEF2-TZVPPD
    Blend: DEF2-TZVPPD
    Number of shells: 26
    Number of basis functions: 84
    Number of Cartesian functions: 101
    Spherical Harmonics?: true
    Max angular momentum: 4

  ==> DFJKGrad: Density-Fitted SCF Gradients <==

    Gradient:                    1
    J tasked:                  Yes
    K tasked:                   No
    wK tasked:                  No
    OpenMP threads:             28
    Integrals threads:          28
    Memory [MiB]:           102996
    Schwarz Cutoff:          1E-12
    Fitting Condition:       1E-10

   => Auxiliary Basis Set <=

  Basis Set: (DEF2-TZVPPD AUX)
    Blend: DEF2-UNIVERSAL-JKFIT
    Number of shells: 64
    Number of basis functions: 282
    Number of Cartesian functions: 397
    Spherical Harmonics?: true
    Max angular momentum: 6

  ==> DFT Potential <==

   => Composite Functional: GAM <= 

   GAM GGA Minessota Exchange-Correlation Functional

    H.S. Yu, et al., Phys. Chem. Chem. Phys. 17, 12146, 2015


    Deriv               =              1
    GGA                 =           TRUE
    Meta                =          FALSE

    Exchange Hybrid     =          FALSE
    MP2 Hybrid          =          FALSE

   => Exchange Functionals <=

    1.0000     XC_GGA_X_GAM

   => Correlation Functionals <=

    1.0000     XC_GGA_C_GAM

   => LibXC Density Thresholds  <==

    XC_GGA_C_GAM:  1.00E-14 
    XC_GGA_X_GAM:  1.00E-14 

   => Molecular Quadrature <=

    Radial Scheme          =       TREUTLER
    Pruning Scheme         =           NONE
    Nuclear Scheme         =       TREUTLER

    BS radius alpha        =              1
    Pruning alpha          =              1
    Radial Points          =             75
    Spherical Points       =            302
    Total Points           =          43983
    Total Blocks           =            404
    Max Points             =            255
    Max Functions          =             84
    Weights Tolerance      =       1.00E-15


  -Total Gradient:
     Atom            X                  Y                   Z
    ------   -----------------  -----------------  -----------------
       1       -0.000000000000     0.000000000000    -0.005219159406
       2       -0.000000000000     0.000000000000     0.004739960438


*** tstop() called on compute224.bc4.acrc.priv at Mon Nov  1 16:09:43 2021
Module time:
	user time   =      28.60 seconds =       0.48 minutes
	system time =       0.96 seconds =       0.02 minutes
	total time  =          5 seconds =       0.08 minutes
Total time:
	user time   =     201.62 seconds =       3.36 minutes
	system time =      10.07 seconds =       0.17 minutes
	total time  =         25 seconds =       0.42 minutes

			-----------------------------------------
			 OPTKING 2.0: for geometry optimizations 
			  - R.A. King,  Bethel University        
			-----------------------------------------
	At level 1: Red. Int., RFO, no backsteps, dynamic trust

	Previous internal coordinate definitions found.
	---Fragment 1 Geometry and Gradient---
	 CU          0.0000000000        0.0000000000        0.0437757115
	 H           0.0000000000        0.0000000000       -2.7333989792
	            -0.0000000000        0.0000000000       -0.0052191594
	            -0.0000000000        0.0000000000        0.0047399604

	---Fragment 1 Intrafragment Coordinates---
	 - Coordinate -           - BOHR/RAD -       - ANG/DEG -
	 R(1,2)           =         2.777175	       1.469618

	Current energy   :     -1642.0249069990

	Energy change for the previous step:
		Projected    :         0.0000662174
		Actual       :        -0.0001389116

	Performing BFGS update.
	Previous computed or guess Hessian on step 1.
	Steps to be used in Hessian update: 3 2
	Taking RFO optimization step.
	Going to follow RFO solution 1.
	Using RFO vector 1.
	Norm of target step-size    0.03528
	Projected energy change by RFO approximation:         0.0004462291

	Back-transformation to cartesian coordinates...
	Successfully converged to displaced geometry.

	--- Internal Coordinate Step in ANG or DEG, aJ/ANG or AJ/DEG ---
	 ---------------------------------------------------------------------------
	   Coordinate                Previous        Force       Change         New 
	   ----------                --------       ------       ------       ------
	    1 R(1,2)          =      1.469618     0.041025     0.018672     1.488289
	 ---------------------------------------------------------------------------
	Successfully symmetrized geometry.

  ==> Convergence Check <==

  Measures of convergence in internal coordinates in au.
  Criteria marked as inactive (o), active & met (*), and active & unmet ( ).
  ---------------------------------------------------------------------------------------------
   Step     Total Energy     Delta E     MAX Force     RMS Force      MAX Disp      RMS Disp   
  ---------------------------------------------------------------------------------------------
    Convergence Criteria    1.00e-06 *    3.00e-04 *             o    1.20e-03 *             o
  ---------------------------------------------------------------------------------------------
      4   -1642.02490700   -1.39e-04      4.98e-03      4.98e-03 o    3.53e-02      3.53e-02 o  ~
  ---------------------------------------------------------------------------------------------

	Writing optimization data to binary file.
	Structure for next step:
	Cartesian Geometry (in Angstrom)
	   CU     0.0000000000   0.0000000000   0.0325008805
	    H     0.0000000000   0.0000000000  -1.4557882135
			--------------------------
			 OPTKING Finished Execution 
			--------------------------

    Structure for next step:
    Molecular point group: c2v
    Full point group: C_inf_v

    Geometry (in Angstrom), charge = 0, multiplicity = 1:

    CU           0.000000000000     0.000000000000     0.023459422439
    H            0.000000000000     0.000000000000    -1.464829677379


Scratch directory: /tmp/
gradient() will perform analytic gradient computation.

*** tstart() called on compute224.bc4.acrc.priv
*** at Mon Nov  1 16:09:43 2021

   => Loading Basis Set <=

    Name: DEF2-TZVPPD
    Role: ORBITAL
    Keyword: BASIS
    atoms 1 entry CU         line  1290 file /mnt/storage/home/zw18965/.conda/envs/p4env/share/psi4/basis/def2-tzvppd.gbs 
    atoms 2 entry H          line    14 file /mnt/storage/home/zw18965/.conda/envs/p4env/share/psi4/basis/def2-tzvppd.gbs 


         ---------------------------------------------------------
                                   SCF
               by Justin Turney, Rob Parrish, Andy Simmonett
                          and Daniel G. A. Smith
                              RKS Reference
                       28 Threads, 137329 MiB Core
         ---------------------------------------------------------

  ==> Geometry <==

    Molecular point group: c2v
    Full point group: C_inf_v

    Geometry (in Angstrom), charge = 0, multiplicity = 1:

       Center              X                  Y                   Z               Mass       
    ------------   -----------------  -----------------  -----------------  -----------------
         CU           0.000000000000     0.000000000000     0.023459422439    62.929597720000
         H            0.000000000000     0.000000000000    -1.464829677379     1.007825032230

  Running in c2v symmetry.

  Rotational constants: A = ************  B =      7.67250  C =      7.67250 [cm^-1]
  Rotational constants: A = ************  B = 230015.77771  C = 230015.77771 [MHz]
  Nuclear repulsion =   10.311262181053879

  Charge       = 0
  Multiplicity = 1
  Electrons    = 30
  Nalpha       = 15
  Nbeta        = 15

  ==> Algorithm <==

  SCF Algorithm Type is DF.
  DIIS enabled.
  MOM disabled.
  Fractional occupation disabled.
  Guess Type is READ.
  Energy threshold   = 1.00e-08
  Density threshold  = 1.00e-08
  Integral threshold = 1.00e-12

  ==> Primary Basis <==

  Basis Set: DEF2-TZVPPD
    Blend: DEF2-TZVPPD
    Number of shells: 26
    Number of basis functions: 84
    Number of Cartesian functions: 101
    Spherical Harmonics?: true
    Max angular momentum: 4

  ==> DFT Potential <==

   => Composite Functional: GAM <= 

   GAM GGA Minessota Exchange-Correlation Functional

    H.S. Yu, et al., Phys. Chem. Chem. Phys. 17, 12146, 2015


    Deriv               =              1
    GGA                 =           TRUE
    Meta                =          FALSE

    Exchange Hybrid     =          FALSE
    MP2 Hybrid          =          FALSE

   => Exchange Functionals <=

    1.0000     XC_GGA_X_GAM

   => Correlation Functionals <=

    1.0000     XC_GGA_C_GAM

   => LibXC Density Thresholds  <==

    XC_GGA_C_GAM:  1.00E-14 
    XC_GGA_X_GAM:  1.00E-14 

   => Molecular Quadrature <=

    Radial Scheme          =       TREUTLER
    Pruning Scheme         =           NONE
    Nuclear Scheme         =       TREUTLER

    BS radius alpha        =              1
    Pruning alpha          =              1
    Radial Points          =             75
    Spherical Points       =            302
    Total Points           =          43986
    Total Blocks           =            405
    Max Points             =            253
    Max Functions          =             84
    Weights Tolerance      =       1.00E-15

   => Loading Basis Set <=

    Name: (DEF2-TZVPPD AUX)
    Role: JKFIT
    Keyword: DF_BASIS_SCF
    atoms 1 entry CU         line  2356 file /mnt/storage/home/zw18965/.conda/envs/p4env/share/psi4/basis/def2-universal-jkfit.gbs 
    atoms 2 entry H          line    18 file /mnt/storage/home/zw18965/.conda/envs/p4env/share/psi4/basis/def2-universal-jkfit.gbs 

   => Loading Basis Set <=

    Name: DEF2-TZVPPD
    Role: ORBITAL
    Keyword: BASIS
    atoms 1 entry CU         line  1290 file /mnt/storage/home/zw18965/.conda/envs/p4env/share/psi4/basis/def2-tzvppd.gbs 
    atoms 2 entry H          line    14 file /mnt/storage/home/zw18965/.conda/envs/p4env/share/psi4/basis/def2-tzvppd.gbs 

  Reading orbitals from file /tmp/Cu01N0_H.default.13241.180.npy, no projection.

  ==> Integral Setup <==

  DFHelper Memory: AOs need 0.019 GiB; user supplied 100.493 GiB. Using in-core AOs.

  ==> MemDFJK: Density-Fitted J/K Matrices <==

    J tasked:                   Yes
    K tasked:                    No
    wK tasked:                   No
    OpenMP threads:              28
    Memory [MiB]:            102904
    Algorithm:                 Core
    Schwarz Cutoff:           1E-12
    Mask sparsity (%):       0.0000
    Fitting Condition:        1E-10

   => Auxiliary Basis Set <=

  Basis Set: (DEF2-TZVPPD AUX)
    Blend: DEF2-UNIVERSAL-JKFIT
    Number of shells: 64
    Number of basis functions: 282
    Number of Cartesian functions: 397
    Spherical Harmonics?: true
    Max angular momentum: 6

  Cached 100.0% of DFT collocation blocks in 0.090 [GiB].

  Minimum eigenvalue in the overlap matrix is 2.2571345754E-03.
  Reciprocal condition number of the overlap matrix is 5.3091494581E-04.
    Using symmetric orthogonalization.

  ==> Pre-Iterations <==

  SCF Guess: Orbitals guess was supplied from a previous computation.

   -------------------------------------------------------
    Irrep   Nso     Nmo     Nalpha   Nbeta   Ndocc  Nsocc
   -------------------------------------------------------
     A1        35      35       8       8       8       0
     A2         9       9       1       1       1       0
     B1        20      20       3       3       3       0
     B2        20      20       3       3       3       0
   -------------------------------------------------------
    Total      84      84      15      15      15       0
   -------------------------------------------------------

  ==> Iterations <==

                           Total Energy        Delta E     RMS |[F,P]|

   @DF-RKS iter   0: -1642.02371029339338   -1.64202e+03   8.35138e-04 
   @DF-RKS iter   1: -1642.02495640189159   -1.24611e-03   2.07643e-04 DIIS
   @DF-RKS iter   2: -1642.02473224761343    2.24154e-04   7.64232e-04 DIIS
   @DF-RKS iter   3: -1642.02497877358155   -2.46526e-04   9.52660e-05 DIIS
   @DF-RKS iter   4: -1642.02499134902109   -1.25754e-05   3.37641e-05 DIIS
   @DF-RKS iter   5: -1642.02499187849276   -5.29472e-07   1.65785e-06 DIIS
   @DF-RKS iter   6: -1642.02499188367756   -5.18480e-09   2.19589e-07 DIIS
   @DF-RKS iter   7: -1642.02499188376760   -9.00400e-11   2.98759e-08 DIIS
   @DF-RKS iter   8: -1642.02499188376783   -2.27374e-13   6.92903e-09 DIIS
  Energy and wave function converged.


  ==> Post-Iterations <==

   Electrons on quadrature grid:
      Ntotal   =   29.9999997816 ; deviation = -2.184e-07 

    Orbital Energies [Eh]
    ---------------------

    Doubly Occupied:                                                      

       1A1  -320.896877     2A1   -38.371057     3A1   -33.771209  
       1B1   -33.767866     1B2   -33.767866     4A1    -4.139044  
       5A1    -2.680851     2B1    -2.672261     2B2    -2.672261  
       6A1    -0.289887     3B1    -0.222712     3B2    -0.222712  
       7A1    -0.216076     1A2    -0.216076     8A1    -0.198218  

    Virtual:                                                              

       9A1    -0.102073     4B2    -0.021453     4B1    -0.021453  
      10A1     0.059407    11A1     0.070256     5B2     0.122934  
       5B1     0.122934    12A1     0.128341     6B2     0.153399  
       6B1     0.153399     2A2     0.166987    13A1     0.166987  
      14A1     0.267709     7B2     0.279535     7B1     0.279535  
      15A1     0.335275    16A1     0.427627     8B2     0.633989  
       8B1     0.633989    17A1     0.669701     9B2     0.762688  
       9B1     0.762688    18A1     0.848345     3A2     0.848345  
      19A1     0.969108    10B2     1.054494    10B1     1.054494  
      20A1     1.248857    21A1     2.400068    22A1     2.619307  
      11B1     2.904895    11B2     2.904895    12B1     2.933090  
      12B2     2.933090    23A1     3.103477     4A2     3.103507  
      24A1     3.121386    25A1     3.205052    13B1     3.361233  
[...]
         H            0.000000000000     0.000000000000    -1.467737356644     1.007825032230

  Running in c2v symmetry.

  Rotational constants: A = ************  B =      7.64213  C =      7.64213 [cm^-1]
  Rotational constants: A = ************  B = 229105.32922  C = 229105.32922 [MHz]
  Nuclear repulsion =   10.290834927429000

  Charge       = 0
  Multiplicity = 1
  Electrons    = 30
  Nalpha       = 15
  Nbeta        = 15

  ==> Algorithm <==

  SCF Algorithm Type is DF.
  DIIS enabled.
  MOM disabled.
  Fractional occupation disabled.
  Guess Type is SAD.
  Energy threshold   = 1.00e-08
  Density threshold  = 1.00e-08
  Integral threshold = 1.00e-12

  ==> Primary Basis <==

  Basis Set: DEF2-TZVPPD
    Blend: DEF2-TZVPPD
    Number of shells: 26
    Number of basis functions: 84
    Number of Cartesian functions: 101
    Spherical Harmonics?: true
    Max angular momentum: 4

  ==> DFT Potential <==

   => Composite Functional: GAM <= 

   GAM GGA Minessota Exchange-Correlation Functional

    H.S. Yu, et al., Phys. Chem. Chem. Phys. 17, 12146, 2015


    Deriv               =              1
    GGA                 =           TRUE
    Meta                =          FALSE

    Exchange Hybrid     =          FALSE
    MP2 Hybrid          =          FALSE

   => Exchange Functionals <=

    1.0000     XC_GGA_X_GAM

   => Correlation Functionals <=

    1.0000     XC_GGA_C_GAM

   => LibXC Density Thresholds  <==

    XC_GGA_C_GAM:  1.00E-14 
    XC_GGA_X_GAM:  1.00E-14 

   => Molecular Quadrature <=

    Radial Scheme          =       TREUTLER
    Pruning Scheme         =           NONE
    Nuclear Scheme         =       TREUTLER

    BS radius alpha        =              1
    Pruning alpha          =              1
    Radial Points          =             75
    Spherical Points       =            302
    Total Points           =          43984
    Total Blocks           =            404
    Max Points             =            254
    Max Functions          =             84
    Weights Tolerance      =       1.00E-15

   => Loading Basis Set <=

    Name: (DEF2-TZVPPD AUX)
    Role: JKFIT
    Keyword: DF_BASIS_SCF
    atoms 1 entry CU         line  2356 file /mnt/storage/home/zw18965/.conda/envs/p4env/share/psi4/basis/def2-universal-jkfit.gbs 
    atoms 2 entry H          line    18 file /mnt/storage/home/zw18965/.conda/envs/p4env/share/psi4/basis/def2-universal-jkfit.gbs 

  ==> Integral Setup <==

  DFHelper Memory: AOs need 0.019 GiB; user supplied 100.493 GiB. Using in-core AOs.

  ==> MemDFJK: Density-Fitted J/K Matrices <==

    J tasked:                   Yes
    K tasked:                    No
    wK tasked:                   No
    OpenMP threads:              28
    Memory [MiB]:            102904
    Algorithm:                 Core
    Schwarz Cutoff:           1E-12
    Mask sparsity (%):       0.0000
    Fitting Condition:        1E-10

   => Auxiliary Basis Set <=

  Basis Set: (DEF2-TZVPPD AUX)
    Blend: DEF2-UNIVERSAL-JKFIT
    Number of shells: 64
    Number of basis functions: 282
    Number of Cartesian functions: 397
    Spherical Harmonics?: true
    Max angular momentum: 6

  Cached 100.0% of DFT collocation blocks in 0.090 [GiB].

  Minimum eigenvalue in the overlap matrix is 2.2818540923E-03.
  Reciprocal condition number of the overlap matrix is 5.3693631361E-04.
    Using symmetric orthogonalization.

  ==> Pre-Iterations <==

  SCF Guess: Superposition of Atomic Densities via on-the-fly atomic UHF (no occupation information).

   -------------------------
    Irrep   Nso     Nmo    
   -------------------------
     A1        35      35 
     A2         9       9 
     B1        20      20 
     B2        20      20 
   -------------------------
    Total      84      84
   -------------------------

  ==> Iterations <==

                           Total Energy        Delta E     RMS |[F,P]|

   @DF-RKS iter SAD: -1639.55002298070985   -1.63955e+03   0.00000e+00 
    Occupation by irrep:
             A1    A2    B1    B2 
    DOCC [     9,    0,    3,    3 ]

   @DF-RKS iter   1: -1638.34795066342258    1.20207e+00   1.01517e-01 DIIS
    Occupation by irrep:
             A1    A2    B1    B2 
    DOCC [     8,    1,    3,    3 ]

   @DF-RKS iter   2: -1598.45376380871130    3.98942e+01   2.11328e-01 DIIS
    Occupation by irrep:
             A1    A2    B1    B2 
    DOCC [     8,    0,    3,    4 ]

   @DF-RKS iter   3: -1640.92481618567649   -4.24711e+01   4.58219e-02 DIIS
    Occupation by irrep:
             A1    A2    B1    B2 
    DOCC [     8,    1,    3,    3 ]

   @DF-RKS iter   4: -1625.80772188327978    1.51171e+01   1.57495e-01 DIIS
   @DF-RKS iter   5: -1641.46398136740004   -1.56563e+01   3.24062e-02 DIIS
   @DF-RKS iter   6: -1642.00060832664713   -5.36627e-01   7.44364e-03 DIIS
   @DF-RKS iter   7: -1642.01608545666977   -1.54771e-02   2.44616e-03 DIIS
   @DF-RKS iter   8: -1642.02444256944159   -8.35711e-03   7.97125e-04 DIIS
   @DF-RKS iter   9: -1642.02498811359828   -5.45544e-04   3.68274e-05 DIIS
   @DF-RKS iter  10: -1642.02499031639786   -2.20280e-06   1.48955e-05 DIIS
   @DF-RKS iter  11: -1642.02499075683386   -4.40436e-07   1.41393e-06 DIIS
   @DF-RKS iter  12: -1642.02499075919854   -2.36469e-09   4.25044e-07 DIIS
   @DF-RKS iter  13: -1642.02499075926926   -7.07132e-11   1.21652e-07 DIIS
   @DF-RKS iter  14: -1642.02499075927608   -6.82121e-12   8.16540e-09 DIIS
  Energy and wave function converged.


  ==> Post-Iterations <==

   Electrons on quadrature grid:
      Ntotal   =   29.9999997665 ; deviation = -2.335e-07 

    Orbital Energies [Eh]
    ---------------------

    Doubly Occupied:                                                      

       1A1  -320.896769     2A1   -38.370916     3A1   -33.771051  
       1B2   -33.767737     1B1   -33.767737     4A1    -4.138921  
       5A1    -2.680676     2B2    -2.672165     2B1    -2.672165  
       6A1    -0.289459     3B2    -0.222582     3B1    -0.222582  
       7A1    -0.216007     1A2    -0.216006     8A1    -0.198210  

    Virtual:                                                              

       9A1    -0.102197     4B2    -0.021453     4B1    -0.021453  
      10A1     0.059439    11A1     0.070177     5B2     0.122946  
       5B1     0.122946    12A1     0.128204     6B2     0.153333  
       6B1     0.153333     2A2     0.166985    13A1     0.166985  
      14A1     0.267607     7B2     0.279403     7B1     0.279403  
      15A1     0.334838    16A1     0.427747     8B2     0.634038  
       8B1     0.634038    17A1     0.669468     9B2     0.762539  
       9B1     0.762539    18A1     0.848358     3A2     0.848358  
      19A1     0.968413    10B2     1.054081    10B1     1.054081  
      20A1     1.249056    21A1     2.400418    22A1     2.620169  
      11B2     2.906710    11B1     2.906710    12B2     2.933273  
      12B1     2.933273    23A1     3.104770     4A2     3.104801  
      24A1     3.121361    25A1     3.204409    13B2     3.361256  
      13B1     3.361256    26A1     3.429040     5A2     3.429044  
      27A1     3.559780     6A2     3.559781    14B2     3.571045  
      14B1     3.571045    28A1     3.687423    15B2     3.738333  
      15B1     3.738333    16B2     4.036522    16B1     4.036522  
      29A1     4.141214    30A1     5.056890     7A2    12.748639  
      31A1    12.748639    17B1    12.751651    17B2    12.751651  
      18B2    12.755126    18B1    12.755126    32A1    12.755251  
       8A2    12.755251    33A1    12.761185    19B1    12.882681  
      19B2    12.882681    34A1    12.884135     9A2    12.884135  
      20B2    12.964184    20B1    12.964184    35A1    13.193783  

    Final Occupation by Irrep:
             A1    A2    B1    B2 
    DOCC [     8,    1,    3,    3 ]

  @DF-RKS Final Energy: -1642.02499075927608

   => Energetics <=

    Nuclear Repulsion Energy =             10.2908349274289996
    One-Electron Energy =               -2311.6602080144489264
    Two-Electron Energy =                 728.0373005682305347
    DFT Exchange-Correlation Energy =     -68.6929182404866197
    Empirical Dispersion Energy =           0.0000000000000000
    VV10 Nonlocal Energy =                  0.0000000000000000
    Total Energy =                      -1642.0249907592760792

Computation Completed


Properties will be evaluated at   0.000000,   0.000000,   0.000000 [a0]

Properties computed using the SCF density matrix

  Nuclear Dipole Moment: [e a0]
     X:     0.0000      Y:     0.0000      Z:    -1.4854

  Electronic Dipole Moment: [e a0]
     X:     0.0000      Y:     0.0000      Z:     2.4558

  Dipole Moment: [e a0]
     X:     0.0000      Y:     0.0000      Z:     0.9703     Total:     0.9703

  Dipole Moment: [D]
     X:     0.0000      Y:     0.0000      Z:     2.4664     Total:     2.4664


*** tstop() called on compute224.bc4.acrc.priv at Mon Nov  1 16:10:34 2021
Module time:
	user time   =      29.62 seconds =       0.49 minutes
	system time =       0.64 seconds =       0.01 minutes
	total time  =          1 seconds =       0.02 minutes
Total time:
	user time   =     688.54 seconds =      11.48 minutes
	system time =      21.45 seconds =       0.36 minutes
	total time  =         76 seconds =       1.27 minutes

*** tstart() called on compute224.bc4.acrc.priv
*** at Mon Nov  1 16:10:34 2021


         ------------------------------------------------------------
                                   SCF GRAD                          
                          Rob Parrish, Justin Turney,                
                       Andy Simmonett, and Alex Sokolov              
         ------------------------------------------------------------

  ==> Geometry <==

    Molecular point group: c2v
    Full point group: C_inf_v

    Geometry (in Angstrom), charge = 0, multiplicity = 1:

       Center              X                  Y                   Z               Mass       
    ------------   -----------------  -----------------  -----------------  -----------------
         CU           0.000000000000     0.000000000000     0.023505989270    62.929597720000
         H            0.000000000000     0.000000000000    -1.467737356644     1.007825032230

  Nuclear repulsion =   10.290834927429000

  ==> Basis Set <==

  Basis Set: DEF2-TZVPPD
    Blend: DEF2-TZVPPD
    Number of shells: 26
    Number of basis functions: 84
    Number of Cartesian functions: 101
    Spherical Harmonics?: true
    Max angular momentum: 4

  ==> DFJKGrad: Density-Fitted SCF Gradients <==

    Gradient:                    1
    J tasked:                  Yes
    K tasked:                   No
    wK tasked:                  No
    OpenMP threads:             28
    Integrals threads:          28
    Memory [MiB]:           102996
    Schwarz Cutoff:          1E-12
    Fitting Condition:       1E-10

   => Auxiliary Basis Set <=

  Basis Set: (DEF2-TZVPPD AUX)
    Blend: DEF2-UNIVERSAL-JKFIT
    Number of shells: 64
    Number of basis functions: 282
    Number of Cartesian functions: 397
    Spherical Harmonics?: true
    Max angular momentum: 6

  ==> DFT Potential <==

   => Composite Functional: GAM <= 

   GAM GGA Minessota Exchange-Correlation Functional

    H.S. Yu, et al., Phys. Chem. Chem. Phys. 17, 12146, 2015


    Deriv               =              1
    GGA                 =           TRUE
    Meta                =          FALSE

    Exchange Hybrid     =          FALSE
    MP2 Hybrid          =          FALSE

   => Exchange Functionals <=

    1.0000     XC_GGA_X_GAM

   => Correlation Functionals <=

    1.0000     XC_GGA_C_GAM

   => LibXC Density Thresholds  <==

    XC_GGA_C_GAM:  1.00E-14 
    XC_GGA_X_GAM:  1.00E-14 

   => Molecular Quadrature <=

    Radial Scheme          =       TREUTLER
    Pruning Scheme         =           NONE
    Nuclear Scheme         =       TREUTLER

    BS radius alpha        =              1
    Pruning alpha          =              1
    Radial Points          =             75
    Spherical Points       =            302
    Total Points           =          43984
    Total Blocks           =            404
    Max Points             =            254
    Max Functions          =             84
    Weights Tolerance      =       1.00E-15


  -Total Gradient:
     Atom            X                  Y                   Z
    ------   -----------------  -----------------  -----------------
       1       -0.000000000000     0.000000000000     0.000131251675
       2        0.000000000000    -0.000000000000    -0.000541543899


*** tstop() called on compute224.bc4.acrc.priv at Mon Nov  1 16:10:39 2021
Module time:
	user time   =      28.68 seconds =       0.48 minutes
	system time =       0.68 seconds =       0.01 minutes
	total time  =          5 seconds =       0.08 minutes
Total time:
	user time   =     717.27 seconds =      11.95 minutes
	system time =      22.13 seconds =       0.37 minutes
	total time  =         81 seconds =       1.35 minutes

         ----------------------------------------------------------
                                   FINDIF
                     R. A. King and Jonathon Misiewicz
         ---------------------------------------------------------

  Computing second-derivative from gradients using projected, 
  symmetry-adapted, cartesian coordinates.

  3 gradients passed in, including the reference geometry.
  Generating complete list of displacements from unique ones.


-------------------------------------------------------------


  ==> Harmonic Vibrational Analysis <==

  non-mass-weighted Hessian:       Symmetric? True   Hermitian? True   Lin Dep Dim?  5 (0)
  projection of translations (True) and rotations (True) removed 5 degrees of freedom (5)
  total projector:                 Symmetric? True   Hermitian? True   Lin Dep Dim?  5 (5)
  mass-weighted Hessian:           Symmetric? True   Hermitian? True   Lin Dep Dim?  5 (0)
  pre-proj  low-frequency mode:    0.0000i [cm^-1]
  pre-proj  low-frequency mode:    0.0000  [cm^-1]
  pre-proj  low-frequency mode:    0.0000  [cm^-1]
  pre-proj  low-frequency mode:    0.0000  [cm^-1]
  pre-proj  low-frequency mode:    0.0000  [cm^-1]
  pre-proj  all modes:['0.0000i' '0.0000' '0.0000' '0.0000' '0.0000' '1820.2768']
  projected mass-weighted Hessian: Symmetric? True   Hermitian? True   Lin Dep Dim?  5 (5)
  post-proj low-frequency mode:    0.0000  [cm^-1] (TR)
  post-proj low-frequency mode:    0.0000  [cm^-1] (TR)
  post-proj low-frequency mode:    0.0000  [cm^-1] (TR)
  post-proj low-frequency mode:    0.0000  [cm^-1] (TR)
  post-proj low-frequency mode:    0.0000  [cm^-1] (TR)
  post-proj  all modes:['0.0000' '0.0000' '0.0000' '0.0000' '0.0000' '1820.2768']

  Vibration                       6           
  Freq [cm^-1]                1820.2768       
  Irrep                           A1          
  Reduced mass [u]              1.0237        
  Force const [mDyne/A]         1.9985        
  Turning point v=0 [a0]        0.2542        
  RMS dev v=0 [a0 u^1/2]        0.1819        
  Char temp [K]               2618.9730       
  ----------------------------------------------------------------------------------
      1   CU               0.00  0.00 -0.02   
      2   H                0.00  0.00  1.00   

  ==> Thermochemistry Components <==

  Entropy, S
    Electronic S            0.000 [cal/(mol K)]        0.000 [J/(mol K)]       0.00000000 [mEh/K] (multiplicity = 1)
    Translational S        38.385 [cal/(mol K)]      160.602 [J/(mol K)]       0.06117004 [mEh/K] (mol. weight = 63.9374 [u], P = 101325.00 [Pa])
    Rotational S            8.538 [cal/(mol K)]       35.724 [J/(mol K)]       0.01360639 [mEh/K] (symmetry no. = 1)
    Vibrational S           0.003 [cal/(mol K)]        0.012 [J/(mol K)]       0.00000475 [mEh/K]
  Total S                  46.926 [cal/(mol K)]      196.338 [J/(mol K)]       0.07478118 [mEh/K]
  Correction S              0.000 [cal/(mol K)]        0.000 [J/(mol K)]       0.00000000 [mEh/K]

  Constant volume heat capacity, Cv
    Electronic Cv           0.000 [cal/(mol K)]        0.000 [J/(mol K)]       0.00000000 [mEh/K]
    Translational Cv        2.981 [cal/(mol K)]       12.472 [J/(mol K)]       0.00475022 [mEh/K]
    Rotational Cv           1.987 [cal/(mol K)]        8.314 [J/(mol K)]       0.00316681 [mEh/K]
    Vibrational Cv          0.023 [cal/(mol K)]        0.098 [J/(mol K)]       0.00003743 [mEh/K]
  Total Cv                  4.991 [cal/(mol K)]       20.884 [J/(mol K)]       0.00795446 [mEh/K]
  Correction Cv             0.000 [cal/(mol K)]        0.000 [J/(mol K)]       0.00000000 [mEh/K]

  Constant pressure heat capacity, Cp
    Electronic Cp           0.000 [cal/(mol K)]        0.000 [J/(mol K)]       0.00000000 [mEh/K]
    Translational Cp        4.968 [cal/(mol K)]       20.786 [J/(mol K)]       0.00791703 [mEh/K]
    Rotational Cp           1.987 [cal/(mol K)]        8.314 [J/(mol K)]       0.00316681 [mEh/K]
    Vibrational Cp          0.023 [cal/(mol K)]        0.098 [J/(mol K)]       0.00003743 [mEh/K]
  Total Cp                  6.979 [cal/(mol K)]       29.199 [J/(mol K)]       0.01112127 [mEh/K]
  Correction Cp             0.000 [cal/(mol K)]        0.000 [J/(mol K)]       0.00000000 [mEh/K]

  ==> Thermochemistry Energy Analysis <==

  Raw electronic energy, E0
  Total E0, Electronic energy at well bottom at 0 [K]                -1642.02499195 [Eh]

  Zero-point energy, ZPE_vib = Sum_i nu_i / 2
    Electronic ZPE          0.000 [kcal/mol]        0.000 [kJ/mol]       0.00000000 [Eh]
    Translational ZPE       0.000 [kcal/mol]        0.000 [kJ/mol]       0.00000000 [Eh]
    Rotational ZPE          0.000 [kcal/mol]        0.000 [kJ/mol]       0.00000000 [Eh]
    Vibrational ZPE         2.602 [kcal/mol]       10.888 [kJ/mol]       0.00414690 [Eh]         910.138 [cm^-1]
  Correction ZPE            2.602 [kcal/mol]       10.888 [kJ/mol]       0.00414690 [Eh]         910.138 [cm^-1]
  Total ZPE, Electronic energy at 0 [K]                              -1642.02084505 [Eh]

  Thermal Energy, E (includes ZPE)
    Electronic E            0.000 [kcal/mol]        0.000 [kJ/mol]       0.00000000 [Eh]
    Translational E         0.889 [kcal/mol]        3.718 [kJ/mol]       0.00141628 [Eh]
    Rotational E            0.592 [kcal/mol]        2.479 [kJ/mol]       0.00094418 [Eh]
    Vibrational E           2.603 [kcal/mol]       10.891 [kJ/mol]       0.00414817 [Eh]
  Correction E              4.084 [kcal/mol]       17.088 [kJ/mol]       0.00650863 [Eh]
  Total E, Electronic energy at  298.15 [K]                          -1642.01848332 [Eh]

  Enthalpy, H_trans = E_trans + k_B * T
    Electronic H            0.000 [kcal/mol]        0.000 [kJ/mol]       0.00000000 [Eh]
    Translational H         1.481 [kcal/mol]        6.197 [kJ/mol]       0.00236046 [Eh]
    Rotational H            0.592 [kcal/mol]        2.479 [kJ/mol]       0.00094418 [Eh]
    Vibrational H           2.603 [kcal/mol]       10.891 [kJ/mol]       0.00414817 [Eh]
  Correction H              4.677 [kcal/mol]       19.567 [kJ/mol]       0.00745281 [Eh]
  Total H, Enthalpy at  298.15 [K]                                   -1642.01753913 [Eh]

  Gibbs free energy, G = H - T * S
    Electronic G            0.000 [kcal/mol]        0.000 [kJ/mol]       0.00000000 [Eh]
    Translational G        -9.963 [kcal/mol]      -41.686 [kJ/mol]      -0.01587739 [Eh]
    Rotational G           -1.953 [kcal/mol]       -8.172 [kJ/mol]      -0.00311256 [Eh]
    Vibrational G           2.602 [kcal/mol]       10.887 [kJ/mol]       0.00414675 [Eh]
  Correction G             -9.314 [kcal/mol]      -38.971 [kJ/mol]      -0.01484320 [Eh]
  Total G, Free enthalpy at  298.15 [K]                              -1642.03983514 [Eh]

    Psi4 stopped on: Monday, 01 November 2021 04:10PM
    Psi4 wall time for execution: 0:01:21.04

*** Psi4 exiting successfully. Buy a developer a beer!
