Optimizer: Optimization complete!
 3 displacements needed.
 1 2 3
Warning: used thermodynamics relations inappropriate for low-frequency modes: ['228.8657']
At level 1: Red. Int., RFO, no backsteps, dynamic trust
At level 1: Red. Int., RFO, no backsteps, dynamic trust
At level 1: Red. Int., RFO, no backsteps, dynamic trust
At level 1: Red. Int., RFO, no backsteps, dynamic trust
At level 1: Red. Int., RFO, no backsteps, dynamic trust
 M. James,
    H. R. McAlexander, A. Kumar, M. Saitow, X. Wang, B. P. Pritchard,
    P. Verma, H. F. Schaefer III, K. Patkowski, R. A. King, E. F. Valeev,
    F. A. Evangelista, J. M. Turney, T. D. Crawford, and C. D. Sherrill,
    J. Chem. Theory Comput. 13(7) pp 3185--3197 (2017).
    (doi: 10.1021/acs.jctc.7b00174)


                         Additional Contributions by
    P. Kraus, H. Kruse, M. H. Lechner, M. C. Schieber, R. A. Shaw,
    A. Alenaizan, R. Galvelis, Z. L. Glick, S. Lehtola, and J. P. Misiewicz

    -----------------------------------------------------------------------


    Psi4 started on: Friday, 29 October 2021 08:23AM

    Process ID: 161855
    Host:       bp1-compute00159.data.bp.acrc.priv
    PSIDATADIR: /work/zw18965/.conda/envs/p4env/share/psi4
    Memory:     500.0 MiB
    Threads:    24
    
  ==> Input File <==

--------------------------------------------------------------------------
memory 144 GB

molecule {
0 1
Cu       0.000000    0.000000    1.107490 
Cu       0.000000    0.000000   -1.107490 
 }

set dynamic_level 1
set basis Def2-TZVPPD

optimize("GAM")
frequencies("GAM")
--------------------------------------------------------------------------

  Memory set to 134.110 GiB by Python driver.
gradient() will perform analytic gradient computation.

*** tstart() called on bp1-compute00159.data.bp.acrc.priv
*** at Fri Oct 29 08:23:30 2021

   => Loading Basis Set <=

    Name: DEF2-TZVPPD
    Role: ORBITAL
    Keyword: BASIS
    atoms 1-2 entry CU         line  1290 file /work/zw18965/.conda/envs/p4env/share/psi4/basis/def2-tzvppd.gbs 


         ---------------------------------------------------------
                                   SCF
               by Justin Turney, Rob Parrish, Andy Simmonett
                          and Daniel G. A. Smith
                              RKS Reference
                       24 Threads, 137329 MiB Core
         ---------------------------------------------------------

  ==> Geometry <==

    Molecular point group: d2h
    Full point group: D_inf_h

    Geometry (in Angstrom), charge = 0, multiplicity = 1:

       Center              X                  Y                   Z               Mass       
    ------------   -----------------  -----------------  -----------------  -----------------
         CU           0.000000000000     0.000000000000     1.107490000000    62.929597720000
         CU           0.000000000000     0.000000000000    -1.107490000000    62.929597720000

  Running in d2h symmetry.

  Rotational constants: A = ************  B =      0.10920  C =      0.10920 [cm^-1]
  Rotational constants: A = ************  B =   3273.80359  C =   3273.80359 [MHz]
  Nuclear repulsion =  200.921919915064706

  Charge       = 0
  Multiplicity = 1
  Electrons    = 58
  Nalpha       = 29
  Nbeta        = 29

  ==> Algorithm <==

  SCF Algorithm Type is DF.
  DIIS enabled.
  MOM disabled.
  Fractional occupation disabled.
  Guess Type is SAD.
  Energy threshold   = 1.00e-08
  Density threshold  = 1.00e-08
  Integral threshold = 0.00e+00

  ==> Primary Basis <==

  Basis Set: DEF2-TZVPPD
    Blend: DEF2-TZVPPD
    Number of shells: 38
    Number of basis function: 134
    Number of Cartesian functions: 166
    Spherical Harmonics?: true
    Max angular momentum: 4

  ==> DFT Potential <==

   => Composite Functional: GAM <= 

   GAM GGA Minessota Exchange-Correlation Functional

    H.S. Yu, et al., Phys. Chem. Chem. Phys. 17, 12146, 2015


    Deriv               =              1
    GGA                 =           TRUE
    Meta                =          FALSE

    Exchange Hybrid     =          FALSE
    MP2 Hybrid          =          FALSE

   => Exchange Functionals <=

    1.0000     XC_GGA_X_GAM

   => Correlation Functionals <=

    1.0000     XC_GGA_C_GAM

   => Molecular Quadrature <=

    Radial Scheme          =       TREUTLER
    Pruning Scheme         =           FLAT
    Nuclear Scheme         =       TREUTLER

    BS radius alpha        =              1
    Pruning alpha          =              1
    Radial Points          =             75
    Spherical Points       =            302
    Total Points           =          45300
    Total Blocks           =            426
    Max Points             =            256
    Max Functions          =            129

   => Loading Basis Set <=

    Name: (DEF2-TZVPPD AUX)
    Role: JKFIT
    Keyword: DF_BASIS_SCF
    atoms 1-2 entry CU         line  2361 file /work/zw18965/.conda/envs/p4env/share/psi4/basis/def2-tzvpp-jkfit.gbs 

  ==> Pre-Iterations <==

   -------------------------------------------------------
    Irrep   Nso     Nmo     Nalpha   Nbeta   Ndocc  Nsocc
   -------------------------------------------------------
     Ag        27      27       0       0       0       0
     B1g        8       8       0       0       0       0
     B2g       16      16       0       0       0       0
     B3g       16      16       0       0       0       0
     Au         8       8       0       0       0       0
     B1u       27      27       0       0       0       0
     B2u       16      16       0       0       0       0
     B3u       16      16       0       0       0       0
   -------------------------------------------------------
    Total     134     134      29      29      29       0
   -------------------------------------------------------

  ==> Integral Setup <==

  DFHelper Memory: AOs need 0.078 GiB; user supplied 100.457 GiB. Using in-core AOs.

  ==> MemDFJK: Density-Fitted J/K Matrices <==

    J tasked:                   Yes
    K tasked:                    No
    wK tasked:                   No
    OpenMP threads:              24
    Memory [MiB]:            102868
    Algorithm:                 Core
    Schwarz Cutoff:           1E-12
    Mask sparsity (%):       4.8340
    Fitting Condition:        1E-10

   => Auxiliary Basis Set <=

  Basis Set: (DEF2-TZVPPD AUX)
    Blend: DEF2-TZVPP-JKFIT
    Number of shells: 116
    Number of basis function: 528
    Number of Cartesian functions: 754
    Spherical Harmonics?: true
    Max angular momentum: 6

  Cached 100.0% of DFT collocation blocks in 0.126 [GiB].

  Minimum eigenvalue in the overlap matrix is 7.7263331766E-04.
  Using Symmetric Orthogonalization.

  SCF Guess: Superposition of Atomic Densities via on-the-fly atomic UHF.

  ==> Iterations <==

                           Total Energy        Delta E     RMS |[F,P]|

   @DF-RKS iter SAD: -3278.34564099046929   -3.27835e+03   0.00000e+00 
    Occupation by irrep:
             Ag   B1g   B2g   B3g    Au   B1u   B2u   B3u 
    DOCC [     9,    1,    3,    3,    0,    7,    3,    3 ]

   @DF-RKS iter   1: -3275.95769335225350    2.38795e+00   1.26364e-01 DIIS
    Occupation by irrep:
             Ag   B1g   B2g   B3g    Au   B1u   B2u   B3u 
    DOCC [     8,    1,    3,    3,    1,    7,    3,    3 ]

   @DF-RKS iter   2: -3187.70952602413581    8.82482e+01   2.70583e-01 DIIS
    Occupation by irrep:
             Ag   B1g   B2g   B3g    Au   B1u   B2u   B3u 
    DOCC [     8,    1,    3,    3,    0,    7,    3,    4 ]

   @DF-RKS iter   3: -3281.18818882608957   -9.34787e+01   5.06817e-02 DIIS
    Occupation by irrep:
             Ag   B1g   B2g   B3g    Au   B1u   B2u   B3u 
    DOCC [     8,    1,    3,    3,    1,    7,    3,    3 ]

   @DF-RKS iter   4: -3242.41611022708184    3.87721e+01   2.00525e-01 DIIS
   @DF-RKS iter   5: -3280.37998290012092   -3.79639e+01   6.28168e-02 DIIS
   @DF-RKS iter   6: -3282.81960257771880   -2.43962e+00   1.48874e-02 DIIS
   @DF-RKS iter   7: -3282.90505363152988   -8.54511e-02   5.56367e-03 DIIS
   @DF-RKS iter   8: -3282.91985238549887   -1.47988e-02   4.11185e-03 DIIS
   @DF-RKS iter   9: -3282.92761692626436   -7.76454e-03   7.34028e-04 DIIS
   @DF-RKS iter  10: -3282.92786270754459   -2.45781e-04   8.92439e-05 DIIS
   @DF-RKS iter  11: -3282.92786657320812   -3.86566e-06   1.81672e-05 DIIS
   @DF-RKS iter  12: -3282.92786671847261   -1.45264e-07   1.38412e-06 DIIS
   @DF-RKS iter  13: -3282.92786671954673   -1.07411e-09   6.46031e-08 DIIS
   @DF-RKS iter  14: -3282.92786671955037   -3.63798e-12   7.24712e-09 DIIS
  Energy and wave function converged.


  ==> Post-Iterations <==

    Orbital Energies [Eh]
    ---------------------

    Doubly Occupied:                                                      

       1B1u -320.871240     1Ag  -320.871221     2B1u  -38.342499  
       2Ag   -38.342448     3Ag   -33.741678     3B1u  -33.741677  
       1B3g  -33.740407     1B2g  -33.740407     1B2u  -33.740405  
       1B3u  -33.740405     4Ag    -4.113877     4B1u   -4.113242  
       5Ag    -2.655460     5B1u   -2.650564     2B2u   -2.648704  
       2B3u   -2.648704     2B3g   -2.648223     2B2g   -2.648223  
       6Ag    -0.235667     3B2u   -0.216369     3B3u   -0.216369  
       1B1g   -0.198467     7Ag    -0.198459     1Au    -0.190707  
       6B1u   -0.190700     8Ag    -0.184573     3B3g   -0.184002  
       3B2g   -0.184002     7B1u   -0.181647  

    Virtual:                                                              

       8B1u   -0.106255     4B3u   -0.041012     4B2u   -0.041012  
       9Ag    -0.012825     4B3g    0.030253     4B2g    0.030253  
       9B1u    0.054478    10Ag     0.085072     5B2u    0.112426  
       5B3u    0.112426    11Ag     0.116100     2B1g    0.143430  
      12Ag     0.143431     5B3g    0.159319     5B2g    0.159319  
      10B1u    0.170551     6B2u    0.205770     6B3u    0.205770  
      11B1u    0.208650     2Au     0.220393    12B1u    0.220393  
      13Ag     0.305188     6B3g    0.320024     6B2g    0.320024  
      13B1u    0.483599    14Ag     0.604714     7B2u    0.616286  
       7B3u    0.616286     7B3g    0.694903     7B2g    0.694903  
      14B1u    0.748386     8B2u    0.795192     8B3u    0.795192  
       3B1g    0.825337    15Ag     0.825346     3Au     0.905607  
      15B1u    0.905616    16Ag     0.932550     8B3g    1.052303  
       8B2g    1.052303    16B1u    1.265772    17Ag     2.870398  
       9B2u    2.898621     9B3u    2.898621    17B1u    2.965686  
       9B3g    2.985230     9B2g    2.985230    18Ag     3.039413  
      18B1u    3.326497    10B2u    3.339730    10B3u    3.339730  
      19Ag     3.357212     4B1g    3.365849    20Ag     3.365878  
      11B3u    3.378553    11B2u    3.378553    10B2g    3.379103  
      10B3g    3.379103     4Au     3.379747    19B1u    3.379782  
      11B3g    3.389407    11B2g    3.389407    20B1u    3.513340  
       5B1g    3.560874    21Ag     3.560932     5Au     3.605276  
      21B1u    3.605328    12B2u    3.631262    12B3u    3.631262  
      12B3g    3.710134    12B2g    3.710134    22Ag     3.897970  
      22B1u    4.018432    13B2u   12.771386    13B3u   12.771386  
      23Ag    12.771400    13B3g   12.771897    13B2g   12.771897  
       6B1g   12.772094     6Au    12.772113    24Ag    12.772927  
      23B1u   12.772948    24B1u   12.772976    14B3u   12.774401  
      14B2u   12.774401    14B2g   12.774409    14B3g   12.774409  
      25Ag    12.776422    25B1u   12.776423     7B1g   12.776750  
       7Au    12.776750    26Ag    12.893377    15B2u   12.899513  
      15B3u   12.899513     8B1g   12.903411    27Ag    12.903720  
      16B3u   12.906788    16B2u   12.906788    15B3g   12.906973  
      15B2g   12.906973     8Au    12.907175    26B1u   12.907481  
      16B3g   12.931934    16B2g   12.931934    27B1u   13.055687  

    Final Occupation by Irrep:
             Ag   B1g   B2g   B3g    Au   B1u   B2u   B3u 
    DOCC [     8,    1,    3,    3,    1,    7,    3,    3 ]

  @DF-RKS Final Energy: -3282.92786671955037

   => Energetics <=

    Nuclear Repulsion Energy =            200.9219199150647057
    One-Electron Energy =               -4984.2485827019108910
    Two-Electron Energy =                1637.1672080195476155
    DFT Exchange-Correlation Energy =    -136.7684119522521087
    Empirical Dispersion Energy =           0.0000000000000000
    VV10 Nonlocal Energy =                  0.0000000000000000
    Total Energy =                      -3282.9278667195503658

Computation Completed


Properties will be evaluated at   0.000000,   0.000000,   0.000000 [a0]

Properties computed using the SCF density matrix

  Nuclear Dipole Moment: [e a0]
     X:     0.0000      Y:     0.0000      Z:    -0.0000

  Electronic Dipole Moment: [e a0]
     X:     0.0000      Y:     0.0000      Z:     0.0000

  Dipole Moment: [e a0]
     X:     0.0000      Y:     0.0000      Z:    -0.0000     Total:     0.0000

  Dipole Moment: [D]
     X:     0.0000      Y:     0.0000      Z:    -0.0000     Total:     0.0000


*** tstop() called on bp1-compute00159.data.bp.acrc.priv at Fri Oct 29 08:23:32 2021
Module time:
	user time   =      33.59 seconds =       0.56 minutes
	system time =       1.49 seconds =       0.02 minutes
	total time  =          2 seconds =       0.03 minutes
Total time:
	user time   =      33.59 seconds =       0.56 minutes
	system time =       1.49 seconds =       0.02 minutes
	total time  =          2 seconds =       0.03 minutes

*** tstart() called on bp1-compute00159.data.bp.acrc.priv
*** at Fri Oct 29 08:23:32 2021


         ------------------------------------------------------------
                                   SCF GRAD                          
                          Rob Parrish, Justin Turney,                
                       Andy Simmonett, and Alex Sokolov              
         ------------------------------------------------------------

  ==> Geometry <==

    Molecular point group: d2h
    Full point group: D_inf_h

    Geometry (in Angstrom), charge = 0, multiplicity = 1:

       Center              X                  Y                   Z               Mass       
    ------------   -----------------  -----------------  -----------------  -----------------
         CU           0.000000000000     0.000000000000     1.107490000000    62.929597720000
         CU           0.000000000000     0.000000000000    -1.107490000000    62.929597720000

  Nuclear repulsion =  200.921919915064706

  ==> Basis Set <==

  Basis Set: DEF2-TZVPPD
    Blend: DEF2-TZVPPD
    Number of shells: 38
    Number of basis function: 134
    Number of Cartesian functions: 166
    Spherical Harmonics?: true
    Max angular momentum: 4

  ==> DFJKGrad: Density-Fitted SCF Gradients <==

    Gradient:                    1
    J tasked:                  Yes
    K tasked:                   No
    wK tasked:                  No
    OpenMP threads:             24
    Integrals threads:          24
    Memory [MiB]:           102996
    Schwarz Cutoff:          0E+00
    Fitting Condition:       1E-10

   => Auxiliary Basis Set <=

  Basis Set: (DEF2-TZVPPD AUX)
    Blend: DEF2-TZVPP-JKFIT
    Number of shells: 116
    Number of basis function: 528
    Number of Cartesian functions: 754
    Spherical Harmonics?: true
    Max angular momentum: 6

  ==> DFT Potential <==

   => Composite Functional: GAM <= 

   GAM GGA Minessota Exchange-Correlation Functional

    H.S. Yu, et al., Phys. Chem. Chem. Phys. 17, 12146, 2015


    Deriv               =              1
    GGA                 =           TRUE
    Meta                =          FALSE

    Exchange Hybrid     =          FALSE
    MP2 Hybrid          =          FALSE

   => Exchange Functionals <=

    1.0000     XC_GGA_X_GAM

   => Correlation Functionals <=

    1.0000     XC_GGA_C_GAM

   => Molecular Quadrature <=

    Radial Scheme          =       TREUTLER
    Pruning Scheme         =           FLAT
    Nuclear Scheme         =       TREUTLER

    BS radius alpha        =              1
    Pruning alpha          =              1
    Radial Points          =             75
    Spherical Points       =            302
    Total Points           =          45300
    Total Blocks           =            426
    Max Points             =            256
    Max Functions          =            129


  -Total Gradient:
     Atom            X                  Y                   Z
    ------   -----------------  -----------------  -----------------
       1       -0.000000000000     0.000000000000    -0.015216918669
       2       -0.000000000000     0.000000000000     0.015216918669


*** tstop() called on bp1-compute00159.data.bp.acrc.priv at Fri Oct 29 08:23:37 2021
Module time:
	user time   =      37.93 seconds =       0.63 minutes
	system time =       2.75 seconds =       0.05 minutes
	total time  =          5 seconds =       0.08 minutes
Total time:
	user time   =      71.54 seconds =       1.19 minutes
	system time =       4.24 seconds =       0.07 minutes
	total time  =          7 seconds =       0.12 minutes

			-----------------------------------------
			 OPTKING 2.0: for geometry optimizations 
			  - R.A. King,  Bethel University        
			-----------------------------------------
	At level 1: Red. Int., RFO, no backsteps, dynamic trust

	Internal coordinates to be generated automatically.
	Detected frag 1 with atoms:  1 2
	---Fragment 1 Bond Connectivity---
	 1 : 2
	 2 : 1

	---Fragment 1 Geometry and Gradient---
	 CU          0.0000000000        0.0000000000        2.0928527867
	 CU          0.0000000000        0.0000000000       -2.0928527867
	            -0.0000000000        0.0000000000       -0.0152169187
	            -0.0000000000        0.0000000000        0.0152169187

	Previous optimization step data not found.  Starting new optimization.

	---Fragment 1 Intrafragment Coordinates---
	 - Coordinate -           - BOHR/RAD -       - ANG/DEG -
	 R(1,2)           =         4.185706	       2.214980

	Current energy   :     -3282.9278667196

	Generating empirical Hessian (Schlegel '84) for each fragment.
	Taking RFO optimization step.
	Going to follow RFO solution 1.
	Using RFO vector 1.
	Norm of target step-size    0.08277
	Projected energy change by RFO approximation:         0.0021513937

	Back-transformation to cartesian coordinates...
	Successfully converged to displaced geometry.

	--- Internal Coordinate Step in ANG or DEG, aJ/ANG or AJ/DEG ---
	 ---------------------------------------------------------------------------
	   Coordinate                Previous        Force       Change         New 
	   ----------                --------       ------       ------       ------
	    1 R(1,2)          =      2.214980     0.125368     0.043802     2.258782
	 ---------------------------------------------------------------------------
	Successfully symmetrized geometry.

  ==> Convergence Check <==

  Measures of convergence in internal coordinates in au.
  Criteria marked as inactive (o), active & met (*), and active & unmet ( ).
  --------------------------------------------------------------------------------------------- ~
   Step     Total Energy     Delta E     MAX Force     RMS Force      MAX Disp      RMS Disp    ~
  --------------------------------------------------------------------------------------------- ~
    Convergence Criteria    1.00e-06 *    3.00e-04 *             o    1.20e-03 *             o  ~
  --------------------------------------------------------------------------------------------- ~
      1   -3282.92786672   -3.28e+03      1.52e-02      1.52e-02 o    8.28e-02      8.28e-02 o  ~
  ---------------------------------------------------------------------------------------------

	Writing optimization data to binary file.
	Structure for next step:
	Cartesian Geometry (in Angstrom)
	   CU     0.0000000000   0.0000000000   1.1293907841
	   CU     0.0000000000   0.0000000000  -1.1293907841
			--------------------------
			 OPTKING Finished Execution 
			--------------------------

    Structure for next step:
    Molecular point group: d2h
    Full point group: D_inf_h

    Geometry (in Angstrom), charge = 0, multiplicity = 1:

    CU           0.000000000000     0.000000000000     1.129390788510
    CU           0.000000000000     0.000000000000    -1.129390788510

gradient() will perform analytic gradient computation.

*** tstart() called on bp1-compute00159.data.bp.acrc.priv
*** at Fri Oct 29 08:23:37 2021

   => Loading Basis Set <=

    Name: DEF2-TZVPPD
    Role: ORBITAL
    Keyword: BASIS
    atoms 1-2 entry CU         line  1290 file /work/zw18965/.conda/envs/p4env/share/psi4/basis/def2-tzvppd.gbs 


         ---------------------------------------------------------
                                   SCF
               by Justin Turney, Rob Parrish, Andy Simmonett
                          and Daniel G. A. Smith
                              RKS Reference
                       24 Threads, 137329 MiB Core
         ---------------------------------------------------------

  ==> Geometry <==

    Molecular point group: d2h
    Full point group: D_inf_h

    Geometry (in Angstrom), charge = 0, multiplicity = 1:

       Center              X                  Y                   Z               Mass       
    ------------   -----------------  -----------------  -----------------  -----------------
         CU           0.000000000000     0.000000000000     1.129390788510    62.929597720000
         CU           0.000000000000     0.000000000000    -1.129390788510    62.929597720000

  Running in d2h symmetry.

  Rotational constants: A = ************  B =      0.10501  C =      0.10501 [cm^-1]
  Rotational constants: A = ************  B =   3148.06554  C =   3148.06554 [MHz]
  Nuclear repulsion =  197.025705672930087

  Charge       = 0
  Multiplicity = 1
  Electrons    = 58
  Nalpha       = 29
  Nbeta        = 29

  ==> Algorithm <==

  SCF Algorithm Type is DF.
  DIIS enabled.
  MOM disabled.
  Fractional occupation disabled.
  Guess Type is READ.
  Energy threshold   = 1.00e-08
  Density threshold  = 1.00e-08
  Integral threshold = 0.00e+00

  ==> Primary Basis <==

  Basis Set: DEF2-TZVPPD
    Blend: DEF2-TZVPPD
    Number of shells: 38
    Number of basis function: 134
    Number of Cartesian functions: 166
    Spherical Harmonics?: true
    Max angular momentum: 4

  ==> DFT Potential <==

   => Composite Functional: GAM <= 

   GAM GGA Minessota Exchange-Correlation Functional

    H.S. Yu, et al., Phys. Chem. Chem. Phys. 17, 12146, 2015


    Deriv               =              1
    GGA                 =           TRUE
    Meta                =          FALSE

    Exchange Hybrid     =          FALSE
    MP2 Hybrid          =          FALSE

   => Exchange Functionals <=

    1.0000     XC_GGA_X_GAM

   => Correlation Functionals <=

    1.0000     XC_GGA_C_GAM

   => Molecular Quadrature <=

    Radial Scheme          =       TREUTLER
    Pruning Scheme         =           FLAT
    Nuclear Scheme         =       TREUTLER

    BS radius alpha        =              1
    Pruning alpha          =              1
    Radial Points          =             75
    Spherical Points       =            302
    Total Points           =          45300
    Total Blocks           =            426
    Max Points             =            256
    Max Functions          =            129

   => Loading Basis Set <=

    Name: (DEF2-TZVPPD AUX)
    Role: JKFIT
    Keyword: DF_BASIS_SCF
    atoms 1-2 entry CU         line  2361 file /work/zw18965/.conda/envs/p4env/share/psi4/basis/def2-tzvpp-jkfit.gbs 

   => Loading Basis Set <=

    Name: DEF2-TZVPPD
    Role: ORBITAL
    Keyword: BASIS
    atoms 1-2 entry CU         line  1290 file /work/zw18965/.conda/envs/p4env/share/psi4/basis/def2-tzvppd.gbs 

  Reading orbitals from file 180, no projection.

  ==> Pre-Iterations <==

   -------------------------------------------------------
    Irrep   Nso     Nmo     Nalpha   Nbeta   Ndocc  Nsocc
   -------------------------------------------------------
     Ag        27      27       0       0       0       0
     B1g        8       8       0       0       0       0
     B2g       16      16       0       0       0       0
     B3g       16      16       0       0       0       0
     Au         8       8       0       0       0       0
     B1u       27      27       0       0       0       0
     B2u       16      16       0       0       0       0
     B3u       16      16       0       0       0       0
   -------------------------------------------------------
    Total     134     134      29      29      29       0
   -------------------------------------------------------

  ==> Integral Setup <==

  DFHelper Memory: AOs need 0.077 GiB; user supplied 100.457 GiB. Using in-core AOs.

  ==> MemDFJK: Density-Fitted J/K Matrices <==

    J tasked:                   Yes
    K tasked:                    No
    wK tasked:                   No
    OpenMP threads:              24
    Memory [MiB]:            102868
    Algorithm:                 Core
    Schwarz Cutoff:           1E-12
    Mask sparsity (%):       5.1682
    Fitting Condition:        1E-10

   => Auxiliary Basis Set <=

  Basis Set: (DEF2-TZVPPD AUX)
    Blend: DEF2-TZVPP-JKFIT
    Number of shells: 116
    Number of basis function: 528
    Number of Cartesian functions: 754
    Spherical Harmonics?: true
    Max angular momentum: 6

  Cached 100.0% of DFT collocation blocks in 0.125 [GiB].

  Minimum eigenvalue in the overlap matrix is 8.2892903785E-04.
  Using Symmetric Orthogonalization.

  SCF Guess: Orbitals guess was supplied from a previous computation.

  ==> Iterations <==

                           Total Energy        Delta E     RMS |[F,P]|

   @DF-RKS iter   0: -3282.93592002690184   -3.28294e+03   2.31457e-03 
   @DF-RKS iter   1: -3282.92880920375410    7.11082e-03   6.70908e-05 DIIS
   @DF-RKS iter   2: -3282.92878474461213    2.44591e-05   2.41701e-04 DIIS
   @DF-RKS iter   3: -3282.92881579280493   -3.10482e-05   5.03177e-05 DIIS
   @DF-RKS iter   4: -3282.92881848112711   -2.68832e-06   2.48908e-05 DIIS
   @DF-RKS iter   5: -3282.92881883321843   -3.52091e-07   2.26725e-06 DIIS
   @DF-RKS iter   6: -3282.92881883625250   -3.03407e-09   9.71928e-08 DIIS
   @DF-RKS iter   7: -3282.92881883625705   -4.54747e-12   1.63625e-08 DIIS
   @DF-RKS iter   8: -3282.92881883625842   -1.36424e-12   2.05439e-09 DIIS
  Energy and wave function converged.


  ==> Post-Iterations <==

    Orbital Energies [Eh]
    ---------------------

    Doubly Occupied:                                                      

       1B1u -320.870733     1Ag  -320.870714     2B1u  -38.341784  
       2Ag   -38.341733     3Ag   -33.740909     3B1u  -33.740909  
       1B2g  -33.739750     1B3g  -33.739750     1B3u  -33.739747  
       1B2u  -33.739747     4Ag    -4.113074     4B1u   -4.112584  
       5Ag    -2.653957     5B1u   -2.649954     2B2u   -2.648077  
       2B3u   -2.648077     2B3g   -2.647691     2B2g   -2.647691  
       6Ag    -0.232575     3B3u   -0.213939     3B2u   -0.213939  
       1B1g   -0.197629     7Ag    -0.197621     1Au    -0.190620  
       6B1u   -0.190612     3B2g   -0.184427     3B3g   -0.184427  
       8Ag    -0.183732     7B1u   -0.182298  

    Virtual:                                                              

       8B1u   -0.107412     4B2u   -0.040715     4B3u   -0.040715  
       9Ag    -0.013953     4B3g    0.029046     4B2g    0.029046  
       9B1u    0.054242    10Ag     0.084857     5B2u    0.112741  
       5B3u    0.112741    11Ag     0.115621     2B1g    0.143286  
      12Ag     0.143286     5B3g    0.158395     5B2g    0.158395  
      10B1u    0.169220     6B2u    0.204146     6B3u    0.204146  
      11B1u    0.206614     2Au     0.219276    12B1u    0.219276  
      13Ag     0.304224     6B2g    0.317728     6B3g    0.317728  
      13B1u    0.476045    14Ag     0.602844     7B3u    0.619853  
       7B2u    0.619853     7B3g    0.692110     7B2g    0.692110  
      14B1u    0.745592     8B3u    0.791834     8B2u    0.791834  
       3B1g    0.827998    15Ag     0.828007     3Au     0.902918  
      15B1u    0.902928    16Ag     0.925442     8B2g    1.045663  
       8B3g    1.045663    16B1u    1.251850    17Ag     2.868060  
       9B3u    2.897638     9B2u    2.897638    17B1u    2.977867  
       9B2g    2.984449     9B3g    2.984449    18Ag     3.015218  
      18B1u    3.314284    10B3u    3.343791    10B2u    3.343791  
       4B1g    3.368535    19Ag     3.368566    20Ag     3.372194  
      11B2u    3.378862    11B3u    3.378862    10B3g    3.379238  
      10B2g    3.379238     4Au     3.379272    19B1u    3.379312  
      11B2g    3.384140    11B3g    3.384140    20B1u    3.491545  
       5B1g    3.560465    21Ag     3.560534     5Au     3.604411  
      21B1u    3.604473    12B2u    3.623282    12B3u    3.623282  
      12B3g    3.706512    12B2g    3.706512    22Ag     3.880319  
      22B1u    4.007737    13B2u   12.772223    13B3u   12.772223  
      23Ag    12.772393    13B3g   12.772624    13B2g   12.772624  
       6B1g   12.772814     6Au    12.772827    24Ag    12.773674  
      23B1u   12.773689    24B1u   12.773902    14B3u   12.774984  
      14B2u   12.774984    14B2g   12.774991    14B3g   12.774991  
      25Ag    12.776817    25B1u   12.776818     7B1g   12.777097  
       7Au    12.777097    26Ag    12.900665    15B2u   12.902441  
      15B3u   12.902441     8B1g   12.904637    27Ag    12.904914  
       8Au    12.907330    16B3u   12.907344    16B2u   12.907344  
      15B2g   12.907468    15B3g   12.907468    26B1u   12.907606  
      16B3g   12.926750    16B2g   12.926750    27B1u   13.033487  

    Final Occupation by Irrep:
             Ag   B1g   B2g   B3g    Au   B1u   B2u   B3u 
    DOCC [     8,    1,    3,    3,    1,    7,    3,    3 ]

  @DF-RKS Final Energy: -3282.92881883625842

   => Energetics <=

    Nuclear Repulsion Energy =            197.0257056729300871
    One-Electron Energy =               -4976.5039145473192548
    Two-Electron Energy =                1633.3137807340522158
    DFT Exchange-Correlation Energy =    -136.7643906959209517
    Empirical Dispersion Energy =           0.0000000000000000
    VV10 Nonlocal Energy =                  0.0000000000000000
    Total Energy =                      -3282.9288188362584151

Computation Completed


Properties will be evaluated at   0.000000,   0.000000,   0.000000 [a0]

Properties computed using the SCF density matrix

  Nuclear Dipole Moment: [e a0]
     X:     0.0000      Y:     0.0000      Z:    -0.0000

  Electronic Dipole Moment: [e a0]
     X:     0.0000      Y:     0.0000      Z:     0.0000

  Dipole Moment: [e a0]
     X:     0.0000      Y:     0.0000      Z:    -0.0000     Total:     0.0000

  Dipole Moment: [D]
     X:     0.0000      Y:     0.0000      Z:    -0.0000     Total:     0.0000


*** tstop() called on bp1-compute00159.data.bp.acrc.priv at Fri Oct 29 08:23:38 2021
Module time:
	user time   =      25.35 seconds =       0.42 minutes
	system time =       1.22 seconds =       0.02 minutes
	total time  =          1 seconds =       0.02 minutes
Total time:
	user time   =      97.64 seconds =       1.63 minutes
	system time =       5.51 seconds =       0.09 minutes
	total time  =          8 seconds =       0.13 minutes

*** tstart() called on bp1-compute00159.data.bp.acrc.priv
*** at Fri Oct 29 08:23:38 2021


         ------------------------------------------------------------
                                   SCF GRAD                          
                          Rob Parrish, Justin Turney,                
                       Andy Simmonett, and Alex Sokolov              
         ------------------------------------------------------------

  ==> Geometry <==

    Molecular point group: d2h
    Full point group: D_inf_h

    Geometry (in Angstrom), charge = 0, multiplicity = 1:

       Center              X                  Y                   Z               Mass       
    ------------   -----------------  -----------------  -----------------  -----------------
         CU           0.000000000000     0.000000000000     1.129390788510    62.929597720000
         CU           0.000000000000     0.000000000000    -1.129390788510    62.929597720000

  Nuclear repulsion =  197.025705672930087

  ==> Basis Set <==

  Basis Set: DEF2-TZVPPD
    Blend: DEF2-TZVPPD
    Number of shells: 38
    Number of basis function: 134
    Number of Cartesian functions: 166
    Spherical Harmonics?: true
    Max angular momentum: 4

  ==> DFJKGrad: Density-Fitted SCF Gradients <==

    Gradient:                    1
    J tasked:                  Yes
    K tasked:                   No
    wK tasked:                  No
    OpenMP threads:             24
    Integrals threads:          24
    Memory [MiB]:           102996
    Schwarz Cutoff:          0E+00
    Fitting Condition:       1E-10

   => Auxiliary Basis Set <=

  Basis Set: (DEF2-TZVPPD AUX)
    Blend: DEF2-TZVPP-JKFIT
    Number of shells: 116
    Number of basis function: 528
    Number of Cartesian functions: 754
    Spherical Harmonics?: true
    Max angular momentum: 6

  ==> DFT Potential <==

   => Composite Functional: GAM <= 

   GAM GGA Minessota Exchange-Correlation Functional

    H.S. Yu, et al., Phys. Chem. Chem. Phys. 17, 12146, 2015


    Deriv               =              1
    GGA                 =           TRUE
    Meta                =          FALSE

    Exchange Hybrid     =          FALSE
    MP2 Hybrid          =          FALSE

   => Exchange Functionals <=

    1.0000     XC_GGA_X_GAM

   => Correlation Functionals <=

    1.0000     XC_GGA_C_GAM

   => Molecular Quadrature <=

    Radial Scheme          =       TREUTLER
    Pruning Scheme         =           FLAT
    Nuclear Scheme         =       TREUTLER

    BS radius alpha        =              1
    Pruning alpha          =              1
    Radial Points          =             75
    Spherical Points       =            302
    Total Points           =          45300
    Total Blocks           =            426
    Max Points             =            256
    Max Functions          =            129


  -Total Gradient:
     Atom            X                  Y                   Z
    ------   -----------------  -----------------  -----------------
       1        0.000000000000     0.000000000000    -0.008081535297
       2        0.000000000000     0.000000000000     0.008081535297


*** tstop() called on bp1-compute00159.data.bp.acrc.priv at Fri Oct 29 08:23:43 2021
Module time:
	user time   =      38.21 seconds =       0.64 minutes
	system time =       2.87 seconds =       0.05 minutes
	total time  =          5 seconds =       0.08 minutes
Total time:
	user time   =     135.87 seconds =       2.26 minutes
	system time =       8.38 seconds =       0.14 minutes
	total time  =         13 seconds =       0.22 minutes

			-----------------------------------------
			 OPTKING 2.0: for geometry optimizations 
			  - R.A. King,  Bethel University        
			-----------------------------------------
	At level 1: Red. Int., RFO, no backsteps, dynamic trust

	Previous internal coordinate definitions found.
	---Fragment 1 Geometry and Gradient---
	 CU          0.0000000000        0.0000000000        2.1342392789
	 CU          0.0000000000        0.0000000000       -2.1342392789
	             0.0000000000        0.0000000000       -0.0080815353
	             0.0000000000        0.0000000000        0.0080815353

	---Fragment 1 Intrafragment Coordinates---
	 - Coordinate -           - BOHR/RAD -       - ANG/DEG -
	 R(1,2)           =         4.268479	       2.258782

	Current energy   :     -3282.9288188363

	Energy change for the previous step:
		Projected    :         0.0021513937
		Actual       :        -0.0009521167

	Performing BFGS update.
	Previous computed or guess Hessian on step 1.
	Steps to be used in Hessian update: 1
	Taking RFO optimization step.
	Going to follow RFO solution 1.
	Using RFO vector 1.
	Norm of target step-size    0.09294
	Projected energy change by RFO approximation:         0.0035371790

	Back-transformation to cartesian coordinates...
	Successfully converged to displaced geometry.

	--- Internal Coordinate Step in ANG or DEG, aJ/ANG or AJ/DEG ---
	 ---------------------------------------------------------------------------
	   Coordinate                Previous        Force       Change         New 
	   ----------                --------       ------       ------       ------
	    1 R(1,2)          =      2.258782     0.066582     0.049181     2.307963
	 ---------------------------------------------------------------------------
	Successfully symmetrized geometry.

  ==> Convergence Check <==

  Measures of convergence in internal coordinates in au.
  Criteria marked as inactive (o), active & met (*), and active & unmet ( ).
  ---------------------------------------------------------------------------------------------
   Step     Total Energy     Delta E     MAX Force     RMS Force      MAX Disp      RMS Disp   
  ---------------------------------------------------------------------------------------------
    Convergence Criteria    1.00e-06 *    3.00e-04 *             o    1.20e-03 *             o
  ---------------------------------------------------------------------------------------------
      2   -3282.92881884   -9.52e-04      8.08e-03      8.08e-03 o    9.29e-02      9.29e-02 o  ~
  ---------------------------------------------------------------------------------------------

	Writing optimization data to binary file.
	Structure for next step:
	Cartesian Geometry (in Angstrom)
	   CU     0.0000000000   0.0000000000   1.1539813620
	   CU     0.0000000000   0.0000000000  -1.1539813620
			--------------------------
			 OPTKING Finished Execution 
			--------------------------

    Structure for next step:
    Molecular point group: d2h
    Full point group: D_inf_h

    Geometry (in Angstrom), charge = 0, multiplicity = 1:

    CU           0.000000000000     0.000000000000     1.153981366580
    CU           0.000000000000     0.000000000000    -1.153981366580

gradient() will perform analytic gradient computation.

*** tstart() called on bp1-compute00159.data.bp.acrc.priv
*** at Fri Oct 29 08:23:43 2021

   => Loading Basis Set <=

    Name: DEF2-TZVPPD
    Role: ORBITAL
    Keyword: BASIS
    atoms 1-2 entry CU         line  1290 file /work/zw18965/.conda/envs/p4env/share/psi4/basis/def2-tzvppd.gbs 


         ---------------------------------------------------------
                                   SCF
               by Justin Turney, Rob Parrish, Andy Simmonett
                          and Daniel G. A. Smith
                              RKS Reference
                       24 Threads, 137329 MiB Core
         ---------------------------------------------------------

  ==> Geometry <==

    Molecular point group: d2h
    Full point group: D_inf_h

    Geometry (in Angstrom), charge = 0, multiplicity = 1:

       Center              X                  Y                   Z               Mass       
    ------------   -----------------  -----------------  -----------------  -----------------
         CU           0.000000000000     0.000000000000     1.153981366580    62.929597720000
         CU           0.000000000000     0.000000000000    -1.153981366580    62.929597720000

  Running in d2h symmetry.

  Rotational constants: A = ************  B =      0.10058  C =      0.10058 [cm^-1]
  Rotational constants: A = ************  B =   3015.32866  C =   3015.32866 [MHz]
  Nuclear repulsion =  192.827218472489960

  Charge       = 0
  Multiplicity = 1
  Electrons    = 58
  Nalpha       = 29
  Nbeta        = 29

  ==> Algorithm <==

  SCF Algorithm Type is DF.
  DIIS enabled.
  MOM disabled.
  Fractional occupation disabled.
  Guess Type is READ.
  Energy threshold   = 1.00e-08
  Density threshold  = 1.00e-08
  Integral threshold = 0.00e+00

  ==> Primary Basis <==

  Basis Set: DEF2-TZVPPD
    Blend: DEF2-TZVPPD
    Number of shells: 38
    Number of basis function: 134
    Number of Cartesian functions: 166
    Spherical Harmonics?: true
    Max angular momentum: 4

  ==> DFT Potential <==

   => Composite Functional: GAM <= 

   GAM GGA Minessota Exchange-Correlation Functional

    H.S. Yu, et al., Phys. Chem. Chem. Phys. 17, 12146, 2015


    Deriv               =              1
    GGA                 =           TRUE
    Meta                =          FALSE

    Exchange Hybrid     =          FALSE
    MP2 Hybrid          =          FALSE

   => Exchange Functionals <=

    1.0000     XC_GGA_X_GAM

   => Correlation Functionals <=

    1.0000     XC_GGA_C_GAM

   => Molecular Quadrature <=

    Radial Scheme          =       TREUTLER
    Pruning Scheme         =           FLAT
    Nuclear Scheme         =       TREUTLER

    BS radius alpha        =              1
    Pruning alpha          =              1
    Radial Points          =             75
    Spherical Points       =            302
    Total Points           =          45300
    Total Blocks           =            430
    Max Points             =            255
    Max Functions          =            129

   => Loading Basis Set <=

    Name: (DEF2-TZVPPD AUX)
    Role: JKFIT
    Keyword: DF_BASIS_SCF
    atoms 1-2 entry CU         line  2361 file /work/zw18965/.conda/envs/p4env/share/psi4/basis/def2-tzvpp-jkfit.gbs 

   => Loading Basis Set <=

    Name: DEF2-TZVPPD
    Role: ORBITAL
    Keyword: BASIS
    atoms 1-2 entry CU         line  1290 file /work/zw18965/.conda/envs/p4env/share/psi4/basis/def2-tzvppd.gbs 

  Reading orbitals from file 180, no projection.

  ==> Pre-Iterations <==

   -------------------------------------------------------
    Irrep   Nso     Nmo     Nalpha   Nbeta   Ndocc  Nsocc
   -------------------------------------------------------
     Ag        27      27       0       0       0       0
     B1g        8       8       0       0       0       0
     B2g       16      16       0       0       0       0
     B3g       16      16       0       0       0       0
     Au         8       8       0       0       0       0
     B1u       27      27       0       0       0       0
     B2u       16      16       0       0       0       0
     B3u       16      16       0       0       0       0
   -------------------------------------------------------
    Total     134     134      29      29      29       0
   -------------------------------------------------------

  ==> Integral Setup <==

  DFHelper Memory: AOs need 0.077 GiB; user supplied 100.458 GiB. Using in-core AOs.

  ==> MemDFJK: Density-Fitted J/K Matrices <==

    J tasked:                   Yes
    K tasked:                    No
    wK tasked:                   No
    OpenMP threads:              24
    Memory [MiB]:            102868
    Algorithm:                 Core
    Schwarz Cutoff:           1E-12
    Mask sparsity (%):       5.7919
    Fitting Condition:        1E-10

   => Auxiliary Basis Set <=

  Basis Set: (DEF2-TZVPPD AUX)
    Blend: DEF2-TZVPP-JKFIT
    Number of shells: 116
    Number of basis function: 528
    Number of Cartesian functions: 754
    Spherical Harmonics?: true
    Max angular momentum: 6

  Cached 100.0% of DFT collocation blocks in 0.125 [GiB].

  Minimum eigenvalue in the overlap matrix is 8.9639544218E-04.
  Using Symmetric Orthogonalization.

  SCF Guess: Orbitals guess was supplied from a previous computation.

  ==> Iterations <==

                           Total Energy        Delta E     RMS |[F,P]|

   @DF-RKS iter   0: -3282.93637125070654   -3.28294e+03   2.38574e-03 
   @DF-RKS iter   1: -3282.92925495845429    7.11629e-03   1.02162e-04 DIIS
   @DF-RKS iter   2: -3282.92918300442670    7.19540e-05   4.10948e-04 DIIS
   @DF-RKS iter   3: -3282.92926623450876   -8.32301e-05   7.30064e-05 DIIS
   @DF-RKS iter   4: -3282.92927125963843   -5.02513e-06   2.92061e-05 DIIS
   @DF-RKS iter   5: -3282.92927174888609   -4.89248e-07   2.55593e-06 DIIS
   @DF-RKS iter   6: -3282.92927175286513   -3.97904e-09   1.29214e-07 DIIS
   @DF-RKS iter   7: -3282.92927175287605   -1.09139e-11   1.79530e-08 DIIS
   @DF-RKS iter   8: -3282.92927175287650   -4.54747e-13   1.34902e-09 DIIS
  Energy and wave function converged.


  ==> Post-Iterations <==

    Orbital Energies [Eh]
    ---------------------

    Doubly Occupied:                                                      

       1B1u -320.870240     1Ag  -320.870221     2B1u  -38.341067  
       2Ag   -38.341016     3B1u  -33.740134     3Ag   -33.740133  
       1B2g  -33.739095     1B3g  -33.739095     1B3u  -33.739093  
       1B2u  -33.739093     4Ag    -4.112305     4B1u   -4.111939  
       5Ag    -2.652523     5B1u   -2.649328     2B3u   -2.647484  
       2B2u   -2.647484     2B2g   -2.647182     2B3g   -2.647182  
       6Ag    -0.229355     3B3u   -0.211532     3B2u   -0.211532  
       1B1g   -0.196831     7Ag    -0.196822     1Au    -0.190570  
       6B1u   -0.190561     3B2g   -0.184890     3B3g   -0.184890  
       7B1u   -0.182986     8Ag    -0.182877  

    Virtual:                                                              

       8B1u   -0.108710     4B3u   -0.040404     4B2u   -0.040404  
       9Ag    -0.015157     4B3g    0.027695     4B2g    0.027695  
       9B1u    0.053950    10Ag     0.084605     5B3u    0.113078  
       5B2u    0.113078    11Ag     0.115134     2B1g    0.143122  
      12Ag     0.143122     5B3g    0.157374     5B2g    0.157374  
      10B1u    0.167729     6B3u    0.202297     6B2u    0.202297  
      11B1u    0.204295     2Au     0.218015    12B1u    0.218016  
      13Ag     0.303072     6B3g    0.315192     6B2g    0.315192  
      13B1u    0.467508    14Ag     0.601382     7B2u    0.623818  
       7B3u    0.623818     7B3g    0.689165     7B2g    0.689165  
      14B1u    0.742843     8B2u    0.788890     8B3u    0.788890  
       3B1g    0.830818    15Ag     0.830825     3Au     0.899976  
      15B1u    0.899984    16Ag     0.917399     8B3g    1.037901  
       8B2g    1.037901    16B1u    1.236222    17Ag     2.865382  
       9B2u    2.897012     9B3u    2.897012     9B3g    2.983086  
       9B2g    2.983086    18Ag     2.989126    17B1u    2.995671  
      18B1u    3.300033    10B3u    3.347457    10B2u    3.347457  
       4B1g    3.370916    19Ag     3.370949     4Au     3.378915  
      19B1u    3.378955    11B2u    3.379078    11B3u    3.379078  
      10B3g    3.379321    10B2g    3.379321    11B2g    3.380620  
      11B3g    3.380620    20Ag     3.383130    20B1u    3.469876  
       5B1g    3.560230    21Ag     3.560307     5Au     3.603366  
      21B1u    3.603436    12B2u    3.613177    12B3u    3.613177  
      12B3g    3.702680    12B2g    3.702680    22Ag     3.856747  
      22B1u    3.994564    13B3u   12.773009    13B2u   12.773009  
      23Ag    12.773290    13B2g   12.773304    13B3g   12.773304  
       6B1g   12.773493     6Au    12.773502    24Ag    12.774370  
      23B1u   12.774380    24B1u   12.774679    14B3u   12.775521  
      14B2u   12.775521    14B2g   12.775526    14B3g   12.775526  
      25Ag    12.777168    25B1u   12.777169     7B1g   12.777402  
       7Au    12.777402    15B2u   12.904788    15B3u   12.904788  
       8B1g   12.905750    26Ag    12.905991    27Ag    12.906903  
       8Au    12.907597    26B1u   12.907837    16B2u   12.907869  
      16B3u   12.907869    15B3g   12.907947    15B2g   12.907947  
      16B3g   12.922303    16B2g   12.922303    27B1u   13.011371  

    Final Occupation by Irrep:
             Ag   B1g   B2g   B3g    Au   B1u   B2u   B3u 
    DOCC [     8,    1,    3,    3,    1,    7,    3,    3 ]

  @DF-RKS Final Energy: -3282.92927175287650

   => Energetics <=

    Nuclear Repulsion Energy =            192.8272184724899603
    One-Electron Energy =               -4968.1527974861619441
    Two-Electron Energy =                1629.1568306124090668
    DFT Exchange-Correlation Energy =    -136.7605233516137844
    Empirical Dispersion Energy =           0.0000000000000000
    VV10 Nonlocal Energy =                  0.0000000000000000
    Total Energy =                      -3282.9292717528765024

Computation Completed


Properties will be evaluated at   0.000000,   0.000000,   0.000000 [a0]

Properties computed using the SCF density matrix

  Nuclear Dipole Moment: [e a0]
     X:     0.0000      Y:     0.0000      Z:    -0.0000

  Electronic Dipole Moment: [e a0]
     X:     0.0000      Y:     0.0000      Z:     0.0000

  Dipole Moment: [e a0]
     X:     0.0000      Y:     0.0000      Z:    -0.0000     Total:     0.0000

  Dipole Moment: [D]
     X:     0.0000      Y:     0.0000      Z:    -0.0000     Total:     0.0000


*** tstop() called on bp1-compute00159.data.bp.acrc.priv at Fri Oct 29 08:23:44 2021
Module time:
	user time   =      25.61 seconds =       0.43 minutes
	system time =       1.03 seconds =       0.02 minutes
	total time  =          1 seconds =       0.02 minutes
Total time:
	user time   =     162.27 seconds =       2.70 minutes
	system time =       9.47 seconds =       0.16 minutes
	total time  =         14 seconds =       0.23 minutes

*** tstart() called on bp1-compute00159.data.bp.acrc.priv
*** at Fri Oct 29 08:23:44 2021


         ------------------------------------------------------------
                                   SCF GRAD                          
                          Rob Parrish, Justin Turney,                
                       Andy Simmonett, and Alex Sokolov              
         ------------------------------------------------------------

  ==> Geometry <==

    Molecular point group: d2h
    Full point group: D_inf_h

    Geometry (in Angstrom), charge = 0, multiplicity = 1:

       Center              X                  Y                   Z               Mass       
    ------------   -----------------  -----------------  -----------------  -----------------
         CU           0.000000000000     0.000000000000     1.153981366580    62.929597720000
         CU           0.000000000000     0.000000000000    -1.153981366580    62.929597720000

  Nuclear repulsion =  192.827218472489960

  ==> Basis Set <==

  Basis Set: DEF2-TZVPPD
    Blend: DEF2-TZVPPD
    Number of shells: 38
    Number of basis function: 134
    Number of Cartesian functions: 166
    Spherical Harmonics?: true
    Max angular momentum: 4

  ==> DFJKGrad: Density-Fitted SCF Gradients <==

    Gradient:                    1
    J tasked:                  Yes
    K tasked:                   No
    wK tasked:                  No
    OpenMP threads:             24
    Integrals threads:          24
    Memory [MiB]:           102996
    Schwarz Cutoff:          0E+00
    Fitting Condition:       1E-10

   => Auxiliary Basis Set <=

  Basis Set: (DEF2-TZVPPD AUX)
    Blend: DEF2-TZVPP-JKFIT
    Number of shells: 116
    Number of basis function: 528
    Number of Cartesian functions: 754
    Spherical Harmonics?: true
    Max angular momentum: 6

  ==> DFT Potential <==

   => Composite Functional: GAM <= 

   GAM GGA Minessota Exchange-Correlation Functional

    H.S. Yu, et al., Phys. Chem. Chem. Phys. 17, 12146, 2015


    Deriv               =              1
    GGA                 =           TRUE
    Meta                =          FALSE

    Exchange Hybrid     =          FALSE
    MP2 Hybrid          =          FALSE

   => Exchange Functionals <=

    1.0000     XC_GGA_X_GAM

   => Correlation Functionals <=

    1.0000     XC_GGA_C_GAM

   => Molecular Quadrature <=

    Radial Scheme          =       TREUTLER
    Pruning Scheme         =           FLAT
    Nuclear Scheme         =       TREUTLER

    BS radius alpha        =              1
    Pruning alpha          =              1
    Radial Points          =             75
    Spherical Points       =            302
    Total Points           =          45300
    Total Blocks           =            430
    Max Points             =            255
    Max Functions          =            129


  -Total Gradient:
     Atom            X                  Y                   Z
    ------   -----------------  -----------------  -----------------
       1        0.000000000000     0.000000000000    -0.001380375542
       2        0.000000000000     0.000000000000     0.001380375542


*** tstop() called on bp1-compute00159.data.bp.acrc.priv at Fri Oct 29 08:23:49 2021
Module time:
	user time   =      38.57 seconds =       0.64 minutes
	system time =       2.80 seconds =       0.05 minutes
	total time  =          5 seconds =       0.08 minutes
Total time:
	user time   =     200.86 seconds =       3.35 minutes
	system time =      12.27 seconds =       0.20 minutes
	total time  =         19 seconds =       0.32 minutes

			-----------------------------------------
			 OPTKING 2.0: for geometry optimizations 
			  - R.A. King,  Bethel University        
			-----------------------------------------
	At level 1: Red. Int., RFO, no backsteps, dynamic trust

	Previous internal coordinate definitions found.
	---Fragment 1 Geometry and Gradient---
	 CU          0.0000000000        0.0000000000        2.1807087367
	 CU          0.0000000000        0.0000000000       -2.1807087367
	             0.0000000000        0.0000000000       -0.0013803755
	             0.0000000000        0.0000000000        0.0013803755

	---Fragment 1 Intrafragment Coordinates---
	 - Coordinate -           - BOHR/RAD -       - ANG/DEG -
	 R(1,2)           =         4.361417	       2.307963

	Current energy   :     -3282.9292717529

	Energy change for the previous step:
		Projected    :         0.0035371790
		Actual       :        -0.0004529166

	Performing BFGS update.
	Previous computed or guess Hessian on step 1.
	Steps to be used in Hessian update: 2 1
	Taking RFO optimization step.
	Going to follow RFO solution 1.
	Using RFO vector 1.
	Norm of target step-size    0.01752
	Projected energy change by RFO approximation:         0.0001293186

	Back-transformation to cartesian coordinates...
	Successfully converged to displaced geometry.

	--- Internal Coordinate Step in ANG or DEG, aJ/ANG or AJ/DEG ---
	 ---------------------------------------------------------------------------
	   Coordinate                Previous        Force       Change         New 
	   ----------                --------       ------       ------       ------
	    1 R(1,2)          =      2.307963     0.011373     0.009273     2.317236
	 ---------------------------------------------------------------------------
	Successfully symmetrized geometry.

  ==> Convergence Check <==

  Measures of convergence in internal coordinates in au.
  Criteria marked as inactive (o), active & met (*), and active & unmet ( ).
  ---------------------------------------------------------------------------------------------
   Step     Total Energy     Delta E     MAX Force     RMS Force      MAX Disp      RMS Disp   
  ---------------------------------------------------------------------------------------------
    Convergence Criteria    1.00e-06 *    3.00e-04 *             o    1.20e-03 *             o
  ---------------------------------------------------------------------------------------------
      3   -3282.92927175   -4.53e-04      1.38e-03      1.38e-03 o    1.75e-02      1.75e-02 o  ~
  ---------------------------------------------------------------------------------------------

	Writing optimization data to binary file.
	Structure for next step:
	Cartesian Geometry (in Angstrom)
	   CU     0.0000000000   0.0000000000   1.1586180575
	   CU     0.0000000000   0.0000000000  -1.1586180575
			--------------------------
			 OPTKING Finished Execution 
			--------------------------

    Structure for next step:
    Molecular point group: d2h
    Full point group: D_inf_h

    Geometry (in Angstrom), charge = 0, multiplicity = 1:

    CU           0.000000000000     0.000000000000     1.158618062082
    CU           0.000000000000     0.000000000000    -1.158618062082

gradient() will perform analytic gradient computation.

*** tstart() called on bp1-compute00159.data.bp.acrc.priv
*** at Fri Oct 29 08:23:49 2021

   => Loading Basis Set <=

    Name: DEF2-TZVPPD
    Role: ORBITAL
    Keyword: BASIS
    atoms 1-2 entry CU         line  1290 file /work/zw18965/.conda/envs/p4env/share/psi4/basis/def2-tzvppd.gbs 


         ---------------------------------------------------------
                                   SCF
               by Justin Turney, Rob Parrish, Andy Simmonett
                          and Daniel G. A. Smith
                              RKS Reference
                       24 Threads, 137329 MiB Core
         ---------------------------------------------------------

  ==> Geometry <==

    Molecular point group: d2h
    Full point group: D_inf_h

    Geometry (in Angstrom), charge = 0, multiplicity = 1:

       Center              X                  Y                   Z               Mass       
    ------------   -----------------  -----------------  -----------------  -----------------
         CU           0.000000000000     0.000000000000     1.158618062082    62.929597720000
         CU           0.000000000000     0.000000000000    -1.158618062082    62.929597720000

  Running in d2h symmetry.

  Rotational constants: A = ************  B =      0.09978  C =      0.09978 [cm^-1]
  Rotational constants: A = ************  B =   2991.24275  C =   2991.24275 [MHz]
  Nuclear repulsion =  192.055539585589031

  Charge       = 0
  Multiplicity = 1
  Electrons    = 58
  Nalpha       = 29
  Nbeta        = 29

  ==> Algorithm <==

  SCF Algorithm Type is DF.
  DIIS enabled.
  MOM disabled.
  Fractional occupation disabled.
  Guess Type is READ.
  Energy threshold   = 1.00e-08
  Density threshold  = 1.00e-08
  Integral threshold = 0.00e+00

  ==> Primary Basis <==

  Basis Set: DEF2-TZVPPD
    Blend: DEF2-TZVPPD
    Number of shells: 38
    Number of basis function: 134
    Number of Cartesian functions: 166
    Spherical Harmonics?: true
    Max angular momentum: 4

  ==> DFT Potential <==

   => Composite Functional: GAM <= 

   GAM GGA Minessota Exchange-Correlation Functional

    H.S. Yu, et al., Phys. Chem. Chem. Phys. 17, 12146, 2015


    Deriv               =              1
    GGA                 =           TRUE
    Meta                =          FALSE

    Exchange Hybrid     =          FALSE
    MP2 Hybrid          =          FALSE

   => Exchange Functionals <=

    1.0000     XC_GGA_X_GAM

   => Correlation Functionals <=

    1.0000     XC_GGA_C_GAM

   => Molecular Quadrature <=

    Radial Scheme          =       TREUTLER
    Pruning Scheme         =           FLAT
    Nuclear Scheme         =       TREUTLER

    BS radius alpha        =              1
    Pruning alpha          =              1
    Radial Points          =             75
    Spherical Points       =            302
    Total Points           =          45300
    Total Blocks           =            430
    Max Points             =            255
    Max Functions          =            129

   => Loading Basis Set <=

    Name: (DEF2-TZVPPD AUX)
    Role: JKFIT
    Keyword: DF_BASIS_SCF
    atoms 1-2 entry CU         line  2361 file /work/zw18965/.conda/envs/p4env/share/psi4/basis/def2-tzvpp-jkfit.gbs 

   => Loading Basis Set <=

    Name: DEF2-TZVPPD
    Role: ORBITAL
    Keyword: BASIS
    atoms 1-2 entry CU         line  1290 file /work/zw18965/.conda/envs/p4env/share/psi4/basis/def2-tzvppd.gbs 

  Reading orbitals from file 180, no projection.

  ==> Pre-Iterations <==

   -------------------------------------------------------
    Irrep   Nso     Nmo     Nalpha   Nbeta   Ndocc  Nsocc
   -------------------------------------------------------
     Ag        27      27       0       0       0       0
     B1g        8       8       0       0       0       0
     B2g       16      16       0       0       0       0
     B3g       16      16       0       0       0       0
     Au         8       8       0       0       0       0
     B1u       27      27       0       0       0       0
     B2u       16      16       0       0       0       0
     B3u       16      16       0       0       0       0
   -------------------------------------------------------
    Total     134     134      29      29      29       0
   -------------------------------------------------------

  ==> Integral Setup <==

  DFHelper Memory: AOs need 0.077 GiB; user supplied 100.458 GiB. Using in-core AOs.

  ==> MemDFJK: Density-Fitted J/K Matrices <==

    J tasked:                   Yes
    K tasked:                    No
    wK tasked:                   No
    OpenMP threads:              24
    Memory [MiB]:            102868
    Algorithm:                 Core
    Schwarz Cutoff:           1E-12
    Mask sparsity (%):       5.7919
    Fitting Condition:        1E-10

   => Auxiliary Basis Set <=

  Basis Set: (DEF2-TZVPPD AUX)
    Blend: DEF2-TZVPP-JKFIT
    Number of shells: 116
    Number of basis function: 528
    Number of Cartesian functions: 754
    Spherical Harmonics?: true
    Max angular momentum: 6

  Cached 100.0% of DFT collocation blocks in 0.125 [GiB].

  Minimum eigenvalue in the overlap matrix is 9.0966971884E-04.
  Using Symmetric Orthogonalization.

  SCF Guess: Orbitals guess was supplied from a previous computation.

  ==> Iterations <==

                           Total Energy        Delta E     RMS |[F,P]|

   @DF-RKS iter   0: -3282.93040045841508   -3.28293e+03   4.22961e-04 
   @DF-RKS iter   1: -3282.92929092796658    1.10953e-03   2.36359e-05 DIIS
   @DF-RKS iter   2: -3282.92928693291606    3.99505e-06   9.69715e-05 DIIS
   @DF-RKS iter   3: -3282.92929144457139   -4.51166e-06   1.54509e-05 DIIS
   @DF-RKS iter   4: -3282.92929165670103   -2.12130e-07   5.68825e-06 DIIS
   @DF-RKS iter   5: -3282.92929167533475   -1.86337e-08   4.78372e-07 DIIS
   @DF-RKS iter   6: -3282.92929167548027   -1.45519e-10   2.47923e-08 DIIS
   @DF-RKS iter   7: -3282.92929167547845    1.81899e-12   3.31270e-09 DIIS
  Energy and wave function converged.


  ==> Post-Iterations <==

    Orbital Energies [Eh]
    ---------------------

    Doubly Occupied:                                                      

       1B1u -320.870155     1Ag  -320.870137     2B1u  -38.340941  
       2Ag   -38.340891     3B1u  -33.739998     3Ag   -33.739997  
       1B3g  -33.738981     1B2g  -33.738981     1B2u  -33.738979  
       1B3u  -33.738979     4Ag    -4.112175     4B1u   -4.111828  
       5Ag    -2.652279     5B1u   -2.649218     2B2u   -2.647384  
       2B3u   -2.647384     2B3g   -2.647097     2B2g   -2.647097  
       6Ag    -0.228778     3B3u   -0.211112     3B2u   -0.211112  
       1B1g   -0.196696     7Ag    -0.196687     1Au    -0.190567  
       6B1u   -0.190557     3B2g   -0.184976     3B3g   -0.184976  
       7B1u   -0.183112     8Ag    -0.182726  

    Virtual:                                                              

       8B1u   -0.108955     4B2u   -0.040349     4B3u   -0.040349  
       9Ag    -0.015376     4B2g    0.027440     4B3g    0.027440  
       9B1u    0.053892    10Ag     0.084556     5B2u    0.113140  
       5B3u    0.113140    11Ag     0.115048     2B1g    0.143091  
      12Ag     0.143091     5B3g    0.157183     5B2g    0.157183  
      10B1u    0.167447     6B2u    0.201946     6B3u    0.201946  
      11B1u    0.203855     2Au     0.217777    12B1u    0.217778  
      13Ag     0.302846     6B2g    0.314719     6B3g    0.314719  
      13B1u    0.465897    14Ag     0.601183     7B2u    0.624556  
       7B3u    0.624556     7B3g    0.688631     7B2g    0.688631  
      14B1u    0.742368     8B3u    0.788441     8B2u    0.788441  
       3B1g    0.831328    15Ag     0.831336     3Au     0.899431  
      15B1u    0.899439    16Ag     0.915872     8B3g    1.036405  
       8B2g    1.036405    16B1u    1.233275    17Ag     2.864849  
       9B2u    2.896949     9B3u    2.896949     9B3g    2.982766  
       9B2g    2.982766    18Ag     2.984382    17B1u    2.999409  
      18B1u    3.297290    10B3u    3.348075    10B2u    3.348075  
       4B1g    3.371299    19Ag     3.371331     4Au     3.378861  
      19B1u    3.378901    11B2u    3.379105    11B3u    3.379105  
      10B3g    3.379328    10B2g    3.379328    11B2g    3.380183  
      11B3g    3.380183    20Ag     3.384637    20B1u    3.466092  
       5B1g    3.560213    21Ag     3.560291     5Au     3.603160  
      21B1u    3.603231    12B3u    3.611190    12B2u    3.611190  
      12B2g    3.701978    12B3g    3.701978    22Ag     3.851940  
      22B1u    3.991967    13B3u   12.773140    13B2u   12.773140  
      13B2g   12.773417    13B3g   12.773417    23Ag    12.773436  
       6B1g   12.773607     6Au    12.773615    24Ag    12.774486  
      23B1u   12.774495    24B1u   12.774798    14B3u   12.775609  
      14B2u   12.775609    14B2g   12.775614    14B3g   12.775614  
      25Ag    12.777224    25B1u   12.777224     7B1g   12.777450  
       7Au    12.777450    15B3u   12.905141    15B2u   12.905141  
       8B1g   12.905933    26Ag    12.906168     8Au    12.907653  
      27Ag    12.907861    26B1u   12.907887    16B3u   12.907957  
      16B2u   12.907957    15B2g   12.908029    15B3g   12.908029  
      16B2g   12.921602    16B3g   12.921602    27B1u   13.007532  

    Final Occupation by Irrep:
             Ag   B1g   B2g   B3g    Au   B1u   B2u   B3u 
    DOCC [     8,    1,    3,    3,    1,    7,    3,    3 ]

  @DF-RKS Final Energy: -3282.92929167547845

   => Energetics <=

    Nuclear Repulsion Energy =            192.0555395855890310
    One-Electron Energy =               -4966.6172226948010575
    Two-Electron Energy =                1628.3922523205108064
    DFT Exchange-Correlation Energy =    -136.7598608867769485
    Empirical Dispersion Energy =           0.0000000000000000
    VV10 Nonlocal Energy =                  0.0000000000000000
    Total Energy =                      -3282.9292916754779981

Computation Completed


Properties will be evaluated at   0.000000,   0.000000,   0.000000 [a0]

Properties computed using the SCF density matrix

  Nuclear Dipole Moment: [e a0]
     X:     0.0000      Y:     0.0000      Z:    -0.0000

  Electronic Dipole Moment: [e a0]
     X:     0.0000      Y:     0.0000      Z:     0.0000

  Dipole Moment: [e a0]
     X:     0.0000      Y:     0.0000      Z:    -0.0000     Total:     0.0000

  Dipole Moment: [D]
     X:     0.0000      Y:     0.0000      Z:    -0.0000     Total:     0.0000


*** tstop() called on bp1-compute00159.data.bp.acrc.priv at Fri Oct 29 08:23:50 2021
Module time:
	user time   =      24.21 seconds =       0.40 minutes
	system time =       1.02 seconds =       0.02 minutes
	total time  =          1 seconds =       0.02 minutes
Total time:
	user time   =     225.57 seconds =       3.76 minutes
	system time =      13.31 seconds =       0.22 minutes
	total time  =         20 seconds =       0.33 minutes

*** tstart() called on bp1-compute00159.data.bp.acrc.priv
*** at Fri Oct 29 08:23:50 2021


         ------------------------------------------------------------
                                   SCF GRAD                          
                          Rob Parrish, Justin Turney,                
                       Andy Simmonett, and Alex Sokolov              
         ------------------------------------------------------------

  ==> Geometry <==

    Molecular point group: d2h
    Full point group: D_inf_h

    Geometry (in Angstrom), charge = 0, multiplicity = 1:

       Center              X                  Y                   Z               Mass       
    ------------   -----------------  -----------------  -----------------  -----------------
         CU           0.000000000000     0.000000000000     1.158618062082    62.929597720000
         CU           0.000000000000     0.000000000000    -1.158618062082    62.929597720000

  Nuclear repulsion =  192.055539585589031

  ==> Basis Set <==

  Basis Set: DEF2-TZVPPD
    Blend: DEF2-TZVPPD
    Number of shells: 38
    Number of basis function: 134
    Number of Cartesian functions: 166
    Spherical Harmonics?: true
    Max angular momentum: 4

  ==> DFJKGrad: Density-Fitted SCF Gradients <==

    Gradient:                    1
    J tasked:                  Yes
    K tasked:                   No
    wK tasked:                  No
    OpenMP threads:             24
    Integrals threads:          24
    Memory [MiB]:           102996
    Schwarz Cutoff:          0E+00
    Fitting Condition:       1E-10

   => Auxiliary Basis Set <=

  Basis Set: (DEF2-TZVPPD AUX)
    Blend: DEF2-TZVPP-JKFIT
    Number of shells: 116
    Number of basis function: 528
    Number of Cartesian functions: 754
    Spherical Harmonics?: true
    Max angular momentum: 6

  ==> DFT Potential <==

   => Composite Functional: GAM <= 

   GAM GGA Minessota Exchange-Correlation Functional

    H.S. Yu, et al., Phys. Chem. Chem. Phys. 17, 12146, 2015


    Deriv               =              1
    GGA                 =           TRUE
    Meta                =          FALSE

    Exchange Hybrid     =          FALSE
    MP2 Hybrid          =          FALSE

   => Exchange Functionals <=

    1.0000     XC_GGA_X_GAM

   => Correlation Functionals <=

    1.0000     XC_GGA_C_GAM

   => Molecular Quadrature <=

    Radial Scheme          =       TREUTLER
    Pruning Scheme         =           FLAT
    Nuclear Scheme         =       TREUTLER

    BS radius alpha        =              1
    Pruning alpha          =              1
    Radial Points          =             75
    Spherical Points       =            302
    Total Points           =          45300
    Total Blocks           =            430
    Max Points             =            255
    Max Functions          =            129


  -Total Gradient:
     Atom            X                  Y                   Z
    ------   -----------------  -----------------  -----------------
       1        0.000000000000    -0.000000000000    -0.000256777317
       2        0.000000000000    -0.000000000000     0.000256777317


*** tstop() called on bp1-compute00159.data.bp.acrc.priv at Fri Oct 29 08:23:55 2021
Module time:
	user time   =      38.15 seconds =       0.64 minutes
	system time =       2.75 seconds =       0.05 minutes
	total time  =          5 seconds =       0.08 minutes
Total time:
	user time   =     263.74 seconds =       4.40 minutes
	system time =      16.06 seconds =       0.27 minutes
	total time  =         25 seconds =       0.42 minutes

			-----------------------------------------
			 OPTKING 2.0: for geometry optimizations 
			  - R.A. King,  Bethel University        
			-----------------------------------------
	At level 1: Red. Int., RFO, no backsteps, dynamic trust

	Previous internal coordinate definitions found.
	---Fragment 1 Geometry and Gradient---
	 CU          0.0000000000        0.0000000000        2.1894708213
	 CU          0.0000000000        0.0000000000       -2.1894708213
	             0.0000000000       -0.0000000000       -0.0002567773
	             0.0000000000       -0.0000000000        0.0002567773

	---Fragment 1 Intrafragment Coordinates---
	 - Coordinate -           - BOHR/RAD -       - ANG/DEG -
	 R(1,2)           =         4.378942	       2.317236

	Current energy   :     -3282.9292916755

	Energy change for the previous step:
		Projected    :         0.0001293186
		Actual       :        -0.0000199226

	Performing BFGS update.
	Previous computed or guess Hessian on step 1.
	Steps to be used in Hessian update: 3 2
	Taking RFO optimization step.
	Going to follow RFO solution 1.
	Using RFO vector 1.
	Norm of target step-size    0.00362
	Projected energy change by RFO approximation:         0.0000056391

	Back-transformation to cartesian coordinates...
	Successfully converged to displaced geometry.

	--- Internal Coordinate Step in ANG or DEG, aJ/ANG or AJ/DEG ---
	 ---------------------------------------------------------------------------
	   Coordinate                Previous        Force       Change         New 
	   ----------                --------       ------       ------       ------
	    1 R(1,2)          =      2.317236     0.002116     0.001918     2.319154
	 ---------------------------------------------------------------------------
	Successfully symmetrized geometry.

  ==> Convergence Check <==

  Measures of convergence in internal coordinates in au.
  Criteria marked as inactive (o), active & met (*), and active & unmet ( ).
  ---------------------------------------------------------------------------------------------
   Step     Total Energy     Delta E     MAX Force     RMS Force      MAX Disp      RMS Disp   
  ---------------------------------------------------------------------------------------------
    Convergence Criteria    1.00e-06 *    3.00e-04 *             o    1.20e-03 *             o
  ---------------------------------------------------------------------------------------------
      4   -3282.92929168   -1.99e-05      2.57e-04 *    2.57e-04 o    3.62e-03      3.62e-03 o  ~
  ---------------------------------------------------------------------------------------------

	Writing optimization data to binary file.
	Structure for next step:
	Cartesian Geometry (in Angstrom)
	   CU     0.0000000000   0.0000000000   1.1595771674
	   CU     0.0000000000   0.0000000000  -1.1595771674
			--------------------------
			 OPTKING Finished Execution 
			--------------------------

    Structure for next step:
    Molecular point group: d2h
    Full point group: D_inf_h

    Geometry (in Angstrom), charge = 0, multiplicity = 1:

    CU           0.000000000000     0.000000000000     1.159577171911
    CU           0.000000000000     0.000000000000    -1.159577171911

gradient() will perform analytic gradient computation.

*** tstart() called on bp1-compute00159.data.bp.acrc.priv
*** at Fri Oct 29 08:23:55 2021

   => Loading Basis Set <=

    Name: DEF2-TZVPPD
    Role: ORBITAL
    Keyword: BASIS
    atoms 1-2 entry CU         line  1290 file /work/zw18965/.conda/envs/p4env/share/psi4/basis/def2-tzvppd.gbs 


         ---------------------------------------------------------
                                   SCF
               by Justin Turney, Rob Parrish, Andy Simmonett
                          and Daniel G. A. Smith
                              RKS Reference
                       24 Threads, 137329 MiB Core
         ---------------------------------------------------------

  ==> Geometry <==

    Molecular point group: d2h
    Full point group: D_inf_h

    Geometry (in Angstrom), charge = 0, multiplicity = 1:

       Center              X                  Y                   Z               Mass       
    ------------   -----------------  -----------------  -----------------  -----------------
         CU           0.000000000000     0.000000000000     1.159577171911    62.929597720000
         CU           0.000000000000     0.000000000000    -1.159577171911    62.929597720000

  Running in d2h symmetry.

  Rotational constants: A = ************  B =      0.09961  C =      0.09961 [cm^-1]
  Rotational constants: A = ************  B =   2986.29656  C =   2986.29656 [MHz]
  Nuclear repulsion =  191.896686548334998

  Charge       = 0
  Multiplicity = 1
  Electrons    = 58
  Nalpha       = 29
  Nbeta        = 29

  ==> Algorithm <==

  SCF Algorithm Type is DF.
  DIIS enabled.
  MOM disabled.
  Fractional occupation disabled.
  Guess Type is READ.
  Energy threshold   = 1.00e-08
  Density threshold  = 1.00e-08
  Integral threshold = 0.00e+00

  ==> Primary Basis <==

  Basis Set: DEF2-TZVPPD
    Blend: DEF2-TZVPPD
    Number of shells: 38
    Number of basis function: 134
    Number of Cartesian functions: 166
    Spherical Harmonics?: true
    Max angular momentum: 4

  ==> DFT Potential <==

   => Composite Functional: GAM <= 

   GAM GGA Minessota Exchange-Correlation Functional

    H.S. Yu, et al., Phys. Chem. Chem. Phys. 17, 12146, 2015


    Deriv               =              1
    GGA                 =           TRUE
    Meta                =          FALSE

    Exchange Hybrid     =          FALSE
    MP2 Hybrid          =          FALSE

   => Exchange Functionals <=

    1.0000     XC_GGA_X_GAM

   => Correlation Functionals <=

    1.0000     XC_GGA_C_GAM

   => Molecular Quadrature <=

    Radial Scheme          =       TREUTLER
    Pruning Scheme         =           FLAT
    Nuclear Scheme         =       TREUTLER

    BS radius alpha        =              1
    Pruning alpha          =              1
    Radial Points          =             75
    Spherical Points       =            302
    Total Points           =          45300
    Total Blocks           =            430
    Max Points             =            255
    Max Functions          =            129

   => Loading Basis Set <=

    Name: (DEF2-TZVPPD AUX)
    Role: JKFIT
    Keyword: DF_BASIS_SCF
    atoms 1-2 entry CU         line  2361 file /work/zw18965/.conda/envs/p4env/share/psi4/basis/def2-tzvpp-jkfit.gbs 

   => Loading Basis Set <=

    Name: DEF2-TZVPPD
    Role: ORBITAL
    Keyword: BASIS
    atoms 1-2 entry CU         line  1290 file /work/zw18965/.conda/envs/p4env/share/psi4/basis/def2-tzvppd.gbs 

  Reading orbitals from file 180, no projection.

  ==> Pre-Iterations <==

   -------------------------------------------------------
    Irrep   Nso     Nmo     Nalpha   Nbeta   Ndocc  Nsocc
   -------------------------------------------------------
     Ag        27      27       0       0       0       0
     B1g        8       8       0       0       0       0
     B2g       16      16       0       0       0       0
     B3g       16      16       0       0       0       0
     Au         8       8       0       0       0       0
     B1u       27      27       0       0       0       0
     B2u       16      16       0       0       0       0
     B3u       16      16       0       0       0       0
   -------------------------------------------------------
    Total     134     134      29      29      29       0
   -------------------------------------------------------

  ==> Integral Setup <==

  DFHelper Memory: AOs need 0.077 GiB; user supplied 100.458 GiB. Using in-core AOs.

  ==> MemDFJK: Density-Fitted J/K Matrices <==

    J tasked:                   Yes
    K tasked:                    No
    wK tasked:                   No
    OpenMP threads:              24
    Memory [MiB]:            102868
    Algorithm:                 Core
    Schwarz Cutoff:           1E-12
    Mask sparsity (%):       5.7919
    Fitting Condition:        1E-10

   => Auxiliary Basis Set <=

  Basis Set: (DEF2-TZVPPD AUX)
    Blend: DEF2-TZVPP-JKFIT
    Number of shells: 116
    Number of basis function: 528
    Number of Cartesian functions: 754
    Spherical Harmonics?: true
    Max angular momentum: 6

  Cached 100.0% of DFT collocation blocks in 0.125 [GiB].

  Minimum eigenvalue in the overlap matrix is 9.1243857630E-04.
  Using Symmetric Orthogonalization.

  SCF Guess: Orbitals guess was supplied from a previous computation.

  ==> Iterations <==

                           Total Energy        Delta E     RMS |[F,P]|

   @DF-RKS iter   0: -3282.92951425046067   -3.28293e+03   8.64870e-05 
   @DF-RKS iter   1: -3282.92929327647926    2.20974e-04   5.05362e-06 DIIS
   @DF-RKS iter   2: -3282.92929309369129    1.82788e-07   2.07509e-05 DIIS
   @DF-RKS iter   3: -3282.92929329959179   -2.05901e-07   3.24799e-06 DIIS
   @DF-RKS iter   4: -3282.92929330889865   -9.30686e-09   1.18363e-06 DIIS
   @DF-RKS iter   5: -3282.92929330970492   -8.06267e-10   9.88057e-08 DIIS
[...]
    MP2 Hybrid          =          FALSE

   => Exchange Functionals <=

    1.0000     XC_GGA_X_GAM

   => Correlation Functionals <=

    1.0000     XC_GGA_C_GAM

   => Molecular Quadrature <=

    Radial Scheme          =       TREUTLER
    Pruning Scheme         =           FLAT
    Nuclear Scheme         =       TREUTLER

    BS radius alpha        =              1
    Pruning alpha          =              1
    Radial Points          =             75
    Spherical Points       =            302
    Total Points           =          45300
    Total Blocks           =            430
    Max Points             =            255
    Max Functions          =            129

   => Loading Basis Set <=

    Name: (DEF2-TZVPPD AUX)
    Role: JKFIT
    Keyword: DF_BASIS_SCF
    atoms 1-2 entry CU         line  2361 file /work/zw18965/.conda/envs/p4env/share/psi4/basis/def2-tzvpp-jkfit.gbs 

  ==> Pre-Iterations <==

   -------------------------------------------------------
    Irrep   Nso     Nmo     Nalpha   Nbeta   Ndocc  Nsocc
   -------------------------------------------------------
     Ag        27      27       0       0       0       0
     B1g        8       8       0       0       0       0
     B2g       16      16       0       0       0       0
     B3g       16      16       0       0       0       0
     Au         8       8       0       0       0       0
     B1u       27      27       0       0       0       0
     B2u       16      16       0       0       0       0
     B3u       16      16       0       0       0       0
   -------------------------------------------------------
    Total     134     134      29      29      29       0
   -------------------------------------------------------

  ==> Integral Setup <==

  DFHelper Memory: AOs need 0.077 GiB; user supplied 100.458 GiB. Using in-core AOs.

  ==> MemDFJK: Density-Fitted J/K Matrices <==

    J tasked:                   Yes
    K tasked:                    No
    wK tasked:                   No
    OpenMP threads:              24
    Memory [MiB]:            102868
    Algorithm:                 Core
    Schwarz Cutoff:           1E-12
    Mask sparsity (%):       5.8142
    Fitting Condition:        1E-10

   => Auxiliary Basis Set <=

  Basis Set: (DEF2-TZVPPD AUX)
    Blend: DEF2-TZVPP-JKFIT
    Number of shells: 116
    Number of basis function: 528
    Number of Cartesian functions: 754
    Spherical Harmonics?: true
    Max angular momentum: 6

  Cached 100.0% of DFT collocation blocks in 0.125 [GiB].

  Minimum eigenvalue in the overlap matrix is 9.1312066301E-04.
  Using Symmetric Orthogonalization.

  SCF Guess: Superposition of Atomic Densities via on-the-fly atomic UHF.

  ==> Iterations <==

                           Total Energy        Delta E     RMS |[F,P]|

   @DF-RKS iter SAD: -3278.23968288972128   -3.27824e+03   0.00000e+00 
    Occupation by irrep:
             Ag   B1g   B2g   B3g    Au   B1u   B2u   B3u 
    DOCC [     9,    1,    3,    3,    0,    7,    3,    3 ]

   @DF-RKS iter   1: -3275.99516935096381    2.24451e+00   1.26334e-01 DIIS
    Occupation by irrep:
             Ag   B1g   B2g   B3g    Au   B1u   B2u   B3u 
    DOCC [     8,    1,    3,    3,    1,    7,    3,    3 ]

   @DF-RKS iter   2: -3189.08783102889902    8.69073e+01   2.69680e-01 DIIS
    Occupation by irrep:
             Ag   B1g   B2g   B3g    Au   B1u   B2u   B3u 
    DOCC [     8,    1,    3,    3,    0,    7,    3,    4 ]

   @DF-RKS iter   3: -3281.18077755430340   -9.20929e+01   5.12509e-02 DIIS
    Occupation by irrep:
             Ag   B1g   B2g   B3g    Au   B1u   B2u   B3u 
    DOCC [     8,    1,    3,    3,    1,    7,    3,    3 ]

   @DF-RKS iter   4: -3243.12029084113965    3.80605e+01   1.99043e-01 DIIS
   @DF-RKS iter   5: -3280.46550385671344   -3.73452e+01   6.16381e-02 DIIS
   @DF-RKS iter   6: -3282.83521538204741   -2.36971e+00   1.39498e-02 DIIS
   @DF-RKS iter   7: -3282.90809838706537   -7.28830e-02   5.24236e-03 DIIS
   @DF-RKS iter   8: -3282.92187841606983   -1.37800e-02   3.96433e-03 DIIS
   @DF-RKS iter   9: -3282.92902420794780   -7.14579e-03   7.63699e-04 DIIS
   @DF-RKS iter  10: -3282.92929019785197   -2.65990e-04   8.35615e-05 DIIS
   @DF-RKS iter  11: -3282.92929347561721   -3.27777e-06   1.56104e-05 DIIS
   @DF-RKS iter  12: -3282.92929358231504   -1.06698e-07   1.23446e-06 DIIS
   @DF-RKS iter  13: -3282.92929358328365   -9.68612e-10   5.71577e-08 DIIS
   @DF-RKS iter  14: -3282.92929358328638   -2.72848e-12   6.81565e-09 DIIS
  Energy and wave function converged.


  ==> Post-Iterations <==

    Orbital Energies [Eh]
    ---------------------

    Doubly Occupied:                                                      

       1B1u -320.870134     1Ag  -320.870115     2B1u  -38.340910  
       2Ag   -38.340859     3B1u  -33.739964     3Ag   -33.739963  
       1B3g  -33.738952     1B2g  -33.738952     1B2u  -33.738950  
       1B3u  -33.738950     4Ag    -4.112142     4B1u   -4.111800  
       5Ag    -2.652218     5B1u   -2.649190     2B2u   -2.647359  
       2B3u   -2.647359     2B3g   -2.647075     2B2g   -2.647075  
       6Ag    -0.228631     3B2u   -0.211006     3B3u   -0.211006  
       1B1g   -0.196662     7Ag    -0.196653     1Au    -0.190566  
       6B1u   -0.190557     3B3g   -0.184999     3B2g   -0.184999  
       7B1u   -0.183144     8Ag    -0.182687  

    Virtual:                                                              

       8B1u   -0.109018     4B2u   -0.040334     4B3u   -0.040334  
       9Ag    -0.015433     4B3g    0.027375     4B2g    0.027375  
       9B1u    0.053876    10Ag     0.084543     5B2u    0.113156  
       5B3u    0.113156    11Ag     0.115026     2B1g    0.143083  
      12Ag     0.143083     5B3g    0.157134     5B2g    0.157134  
      10B1u    0.167375     6B2u    0.201855     6B3u    0.201855  
      11B1u    0.203742     2Au     0.217716    12B1u    0.217716  
      13Ag     0.302788     6B3g    0.314597     6B2g    0.314597  
      13B1u    0.465482    14Ag     0.601136     7B2u    0.624745  
       7B3u    0.624745     7B3g    0.688494     7B2g    0.688494  
      14B1u    0.742247     8B2u    0.788331     8B3u    0.788331  
       3B1g    0.831459    15Ag     0.831466     3Au     0.899291  
      15B1u    0.899299    16Ag     0.915478     8B3g    1.036018  
       8B2g    1.036018    16B1u    1.232515    17Ag     2.864709  
       9B2u    2.896935     9B3u    2.896935     9B3g    2.982681  
       9B2g    2.982681    18Ag     2.983170    17B1u    3.000388  
      18B1u    3.296581    10B2u    3.348231    10B3u    3.348231  
       4B1g    3.371395    19Ag     3.371427     4Au     3.378847  
      19B1u    3.378888    11B2u    3.379111    11B3u    3.379111  
      10B3g    3.379329    10B2g    3.379329    11B3g    3.380080  
      11B2g    3.380080    20Ag     3.385001    20B1u    3.465132  
       5B1g    3.560210    21Ag     3.560288     5Au     3.603106  
      21B1u    3.603177    12B2u    3.610675    12B3u    3.610675  
      12B3g    3.701798    12B2g    3.701798    22Ag     3.850685  
      22B1u    3.991292    13B2u   12.773173    13B3u   12.773173  
      13B3g   12.773446    13B2g   12.773446    23Ag    12.773473  
       6B1g   12.773636     6Au    12.773643    24Ag    12.774515  
      23B1u   12.774523    24B1u   12.774827    14B3u   12.775631  
      14B2u   12.775631    14B2g   12.775636    14B3g   12.775636  
      25Ag    12.777238    25B1u   12.777238     7B1g   12.777462  
       7Au    12.777462    15B2u   12.905228    15B3u   12.905228  
       8B1g   12.905979    26Ag    12.906212     8Au    12.907668  
      26B1u   12.907900    16B3u   12.907979    16B2u   12.907979  
      15B3g   12.908049    15B2g   12.908049    27Ag    12.908097  
      16B3g   12.921428    16B2g   12.921428    27B1u   13.006560  

    Final Occupation by Irrep:
             Ag   B1g   B2g   B3g    Au   B1u   B2u   B3u 
    DOCC [     8,    1,    3,    3,    1,    7,    3,    3 ]

  @DF-RKS Final Energy: -3282.92929358328638

   => Energetics <=

    Nuclear Repulsion Energy =            191.8576646710916407
    One-Electron Energy =               -4966.2234382604819984
    Two-Electron Energy =                1628.1961732484753611
    DFT Exchange-Correlation Energy =    -136.7596932423716680
    Empirical Dispersion Energy =           0.0000000000000000
    VV10 Nonlocal Energy =                  0.0000000000000000
    Total Energy =                      -3282.9292935832868352

Computation Completed


Properties will be evaluated at   0.000000,   0.000000,   0.000000 [a0]

Properties computed using the SCF density matrix

  Nuclear Dipole Moment: [e a0]
     X:     0.0000      Y:     0.0000      Z:    -0.0000

  Electronic Dipole Moment: [e a0]
     X:     0.0000      Y:     0.0000      Z:     0.0000

  Dipole Moment: [e a0]
     X:     0.0000      Y:     0.0000      Z:    -0.0000     Total:     0.0000

  Dipole Moment: [D]
     X:     0.0000      Y:     0.0000      Z:    -0.0000     Total:     0.0000


*** tstop() called on bp1-compute00159.data.bp.acrc.priv at Fri Oct 29 08:24:22 2021
Module time:
	user time   =      34.12 seconds =       0.57 minutes
	system time =       1.22 seconds =       0.02 minutes
	total time  =          2 seconds =       0.03 minutes
Total time:
	user time   =     580.57 seconds =       9.68 minutes
	system time =      33.23 seconds =       0.55 minutes
	total time  =         52 seconds =       0.87 minutes

*** tstart() called on bp1-compute00159.data.bp.acrc.priv
*** at Fri Oct 29 08:24:22 2021


         ------------------------------------------------------------
                                   SCF GRAD                          
                          Rob Parrish, Justin Turney,                
                       Andy Simmonett, and Alex Sokolov              
         ------------------------------------------------------------

  ==> Geometry <==

    Molecular point group: d2h
    Full point group: D_inf_h

    Geometry (in Angstrom), charge = 0, multiplicity = 1:

       Center              X                  Y                   Z               Mass       
    ------------   -----------------  -----------------  -----------------  -----------------
         CU           0.000000000000     0.000000000000     1.159813017990    62.929597720000
         CU           0.000000000000     0.000000000000    -1.159813017990    62.929597720000

  Nuclear repulsion =  191.857664671091641

  ==> Basis Set <==

  Basis Set: DEF2-TZVPPD
    Blend: DEF2-TZVPPD
    Number of shells: 38
    Number of basis function: 134
    Number of Cartesian functions: 166
    Spherical Harmonics?: true
    Max angular momentum: 4

  ==> DFJKGrad: Density-Fitted SCF Gradients <==

    Gradient:                    1
    J tasked:                  Yes
    K tasked:                   No
    wK tasked:                  No
    OpenMP threads:             24
    Integrals threads:          24
    Memory [MiB]:           102996
    Schwarz Cutoff:          0E+00
    Fitting Condition:       1E-10

   => Auxiliary Basis Set <=

  Basis Set: (DEF2-TZVPPD AUX)
    Blend: DEF2-TZVPP-JKFIT
    Number of shells: 116
    Number of basis function: 528
    Number of Cartesian functions: 754
    Spherical Harmonics?: true
    Max angular momentum: 6

  ==> DFT Potential <==

   => Composite Functional: GAM <= 

   GAM GGA Minessota Exchange-Correlation Functional

    H.S. Yu, et al., Phys. Chem. Chem. Phys. 17, 12146, 2015


    Deriv               =              1
    GGA                 =           TRUE
    Meta                =          FALSE

    Exchange Hybrid     =          FALSE
    MP2 Hybrid          =          FALSE

   => Exchange Functionals <=

    1.0000     XC_GGA_X_GAM

   => Correlation Functionals <=

    1.0000     XC_GGA_C_GAM

   => Molecular Quadrature <=

    Radial Scheme          =       TREUTLER
    Pruning Scheme         =           FLAT
    Nuclear Scheme         =       TREUTLER

    BS radius alpha        =              1
    Pruning alpha          =              1
    Radial Points          =             75
    Spherical Points       =            302
    Total Points           =          45300
    Total Blocks           =            430
    Max Points             =            255
    Max Functions          =            129


  -Total Gradient:
     Atom            X                  Y                   Z
    ------   -----------------  -----------------  -----------------
       1        0.000000000000    -0.000000000000     0.000025778059
       2        0.000000000000    -0.000000000000    -0.000025778059


*** tstop() called on bp1-compute00159.data.bp.acrc.priv at Fri Oct 29 08:24:27 2021
Module time:
	user time   =      37.33 seconds =       0.62 minutes
	system time =       2.59 seconds =       0.04 minutes
	total time  =          5 seconds =       0.08 minutes
Total time:
	user time   =     617.92 seconds =      10.30 minutes
	system time =      35.82 seconds =       0.60 minutes
	total time  =         57 seconds =       0.95 minutes

         ----------------------------------------------------------
                                   FINDIF
                     R. A. King and Jonathon Misiewicz
         ---------------------------------------------------------

  Computing second-derivative from gradients using projected, 
  symmetry-adapted, cartesian coordinates.

  3 gradients passed in, including the reference geometry.
  Generating complete list of displacements from unique ones.


-------------------------------------------------------------


  ==> Harmonic Vibrational Analysis <==

  non-mass-weighted Hessian:       Symmetric? True   Hermitian? True   Lin Dep Dim?  5 (0)
  projection of translations (True) and rotations (True) removed 5 degrees of freedom (5)
  total projector:                 Symmetric? True   Hermitian? True   Lin Dep Dim?  5 (5)
  mass-weighted Hessian:           Symmetric? True   Hermitian? True   Lin Dep Dim?  5 (0)
  pre-proj  low-frequency mode:    0.0000  [cm^-1]
  pre-proj  low-frequency mode:    0.0000  [cm^-1]
  pre-proj  low-frequency mode:    0.0000  [cm^-1]
  pre-proj  low-frequency mode:    0.0000  [cm^-1]
  pre-proj  low-frequency mode:    0.0000  [cm^-1]
  pre-proj  all modes:['0.0000' '0.0000' '0.0000' '0.0000' '0.0000' '228.8657']
  projected mass-weighted Hessian: Symmetric? True   Hermitian? True   Lin Dep Dim?  5 (5)
  post-proj low-frequency mode:    0.0000  [cm^-1] (TR)
  post-proj low-frequency mode:    0.0000  [cm^-1] (TR)
  post-proj low-frequency mode:    0.0000  [cm^-1] (TR)
  post-proj low-frequency mode:    0.0000  [cm^-1] (TR)
  post-proj low-frequency mode:    0.0000  [cm^-1] (TR)
  post-proj  all modes:['0.0000' '0.0000' '0.0000' '0.0000' '0.0000' '228.8657']

  Vibration                       6           
  Freq [cm^-1]                 228.8657       
  Irrep                           Ag          
  Reduced mass [u]             62.9296        
  Force const [mDyne/A]         1.9421        
  Turning point v=0 [a0]        0.0914        
  RMS dev v=0 [a0 u^1/2]        0.5129        
  Char temp [K]                329.2869       
  ----------------------------------------------------------------------------------
      1   CU               0.00  0.00  0.71   
      2   CU               0.00  0.00 -0.71   

  ==> Thermochemistry Components <==

  Entropy, S
    Electronic S            0.000 [cal/(mol K)]        0.000 [J/(mol K)]       0.00000000 [mEh/K] (multiplicity = 1)
    Translational S        40.404 [cal/(mol K)]      169.048 [J/(mol K)]       0.06438717 [mEh/K] (mol. weight = 125.8592 [u], P = 101325.00 [Pa])
    Rotational S           15.793 [cal/(mol K)]       66.076 [J/(mol K)]       0.02516705 [mEh/K] (symmetry no. = 2)
    Vibrational S           1.888 [cal/(mol K)]        7.899 [J/(mol K)]       0.00300844 [mEh/K]
  Total S                  58.084 [cal/(mol K)]      243.023 [J/(mol K)]       0.09256265 [mEh/K]
  Correction S              0.000 [cal/(mol K)]        0.000 [J/(mol K)]       0.00000000 [mEh/K]

  Constant volume heat capacity, Cv
    Electronic Cv           0.000 [cal/(mol K)]        0.000 [J/(mol K)]       0.00000000 [mEh/K]
    Translational Cv        2.981 [cal/(mol K)]       12.472 [J/(mol K)]       0.00475022 [mEh/K]
    Rotational Cv           1.987 [cal/(mol K)]        8.314 [J/(mol K)]       0.00316681 [mEh/K]
    Vibrational Cv          1.797 [cal/(mol K)]        7.518 [J/(mol K)]       0.00286363 [mEh/K]
  Total Cv                  6.765 [cal/(mol K)]       28.305 [J/(mol K)]       0.01078066 [mEh/K]
  Correction Cv             0.000 [cal/(mol K)]        0.000 [J/(mol K)]       0.00000000 [mEh/K]

  Constant pressure heat capacity, Cp
    Electronic Cp           0.000 [cal/(mol K)]        0.000 [J/(mol K)]       0.00000000 [mEh/K]
    Translational Cp        4.968 [cal/(mol K)]       20.786 [J/(mol K)]       0.00791703 [mEh/K]
    Rotational Cp           1.987 [cal/(mol K)]        8.314 [J/(mol K)]       0.00316681 [mEh/K]
    Vibrational Cp          1.797 [cal/(mol K)]        7.518 [J/(mol K)]       0.00286363 [mEh/K]
  Total Cp                  8.752 [cal/(mol K)]       36.619 [J/(mol K)]       0.01394747 [mEh/K]
  Correction Cp             0.000 [cal/(mol K)]        0.000 [J/(mol K)]       0.00000000 [mEh/K]

  ==> Thermochemistry Energy Analysis <==

  Raw electronic energy, E0
  Total E0, Electronic energy at well bottom at 0 [K]                -3282.92929331 [Eh]

  Zero-point energy, ZPE_vib = Sum_i nu_i / 2
    Electronic ZPE          0.000 [kcal/mol]        0.000 [kJ/mol]       0.00000000 [Eh]
    Translational ZPE       0.000 [kcal/mol]        0.000 [kJ/mol]       0.00000000 [Eh]
    Rotational ZPE          0.000 [kcal/mol]        0.000 [kJ/mol]       0.00000000 [Eh]
    Vibrational ZPE         0.327 [kcal/mol]        1.369 [kJ/mol]       0.00052139 [Eh]         114.433 [cm^-1]
  Correction ZPE            0.327 [kcal/mol]        1.369 [kJ/mol]       0.00052139 [Eh]         114.433 [cm^-1]
  Total ZPE, Electronic energy at 0 [K]                              -3282.92877192 [Eh]

  Thermal Energy, E (includes ZPE)
    Electronic E            0.000 [kcal/mol]        0.000 [kJ/mol]       0.00000000 [Eh]
    Translational E         0.889 [kcal/mol]        3.718 [kJ/mol]       0.00141628 [Eh]
    Rotational E            0.592 [kcal/mol]        2.479 [kJ/mol]       0.00094418 [Eh]
    Vibrational E           0.652 [kcal/mol]        2.726 [kJ/mol]       0.00103826 [Eh]
  Correction E              2.133 [kcal/mol]        8.923 [kJ/mol]       0.00339872 [Eh]
  Total E, Electronic energy at  298.15 [K]                          -3282.92589459 [Eh]

  Enthalpy, H_trans = E_trans + k_B * T
    Electronic H            0.000 [kcal/mol]        0.000 [kJ/mol]       0.00000000 [Eh]
    Translational H         1.481 [kcal/mol]        6.197 [kJ/mol]       0.00236046 [Eh]
    Rotational H            0.592 [kcal/mol]        2.479 [kJ/mol]       0.00094418 [Eh]
    Vibrational H           0.652 [kcal/mol]        2.726 [kJ/mol]       0.00103826 [Eh]
  Correction H              2.725 [kcal/mol]       11.402 [kJ/mol]       0.00434291 [Eh]
  Total H, Enthalpy at  298.15 [K]                                   -3282.92495040 [Eh]

  Gibbs free energy, G = H - T * S
    Electronic G            0.000 [kcal/mol]        0.000 [kJ/mol]       0.00000000 [Eh]
    Translational G       -10.565 [kcal/mol]      -44.204 [kJ/mol]      -0.01683657 [Eh]
    Rotational G           -4.116 [kcal/mol]      -17.222 [kJ/mol]      -0.00655937 [Eh]
    Vibrational G           0.089 [kcal/mol]        0.371 [kJ/mol]       0.00014130 [Eh]
  Correction G            -14.593 [kcal/mol]      -61.055 [kJ/mol]      -0.02325465 [Eh]
  Total G, Free enthalpy at  298.15 [K]                              -3282.95254796 [Eh]

    Psi4 stopped on: Friday, 29 October 2021 08:24AM
    Psi4 wall time for execution: 0:00:56.64

*** Psi4 exiting successfully. Buy a developer a beer!
