
    -----------------------------------------------------------------------
          Psi4: An Open-Source Ab Initio Electronic Structure Package
                               Psi4 1.4.1 release

                         Git: Rev {HEAD} cd00f19 


    D. G. A. Smith, L. A. Burns, A. C. Simmonett, R. M. Parrish,
    M. C. Schieber, R. Galvelis, P. Kraus, H. Kruse, R. Di Remigio,
    A. Alenaizan, A. M. James, S. Lehtola, J. P. Misiewicz, M. Scheurer,
    R. A. Shaw, J. B. Schriber, Y. Xie, Z. L. Glick, D. A. Sirianni,
    J. S. O'Brien, J. M. Waldrop, A. Kumar, E. G. Hohenstein,
    B. P. Pritchard, B. R. Brooks, H. F. Schaefer III, A. Yu. Sokolov,
    K. Patkowski, A. E. DePrince III, U. Bozkaya, R. A. King,
    F. A. Evangelista, J. M. Turney, T. D. Crawford, C. D. Sherrill,
    J. Chem. Phys. 152(18) 184108 (2020). https://doi.org/10.1063/5.0006002

                            Additional Code Authors
    E. T. Seidl, C. L. Janssen, E. F. Valeev, M. L. Leininger,
    J. F. Gonthier, R. M. Richard, H. R. McAlexander, M. Saitow, X. Wang,
    P. Verma, and M. H. Lechner

             Previous Authors, Complete List of Code Contributors,
                       and Citations for Specific Modules
    https://github.com/psi4/psi4/blob/master/codemeta.json
    https://github.com/psi4/psi4/graphs/contributors
    http://psicode.org/psi4manual/master/introduction.html#citing-psifour

    -----------------------------------------------------------------------


    Psi4 started on: Friday, 05 November 2021 01:30PM

    Process ID: 15128
    Host:       compute322.bc4.acrc.priv
    PSIDATADIR: /mnt/storage/home/zw18965/.conda/envs/p4env/share/psi4
    Memory:     500.0 MiB
    Threads:    28
    
  ==> Input File <==

--------------------------------------------------------------------------
memory 144 GB

molecule {
0 2
Cu       0.000000    1.346828   -0.000000 
Cu       1.166387   -0.673414   -0.000000 
Cu      -1.166387   -0.673414   -0.000000 
 }

set reference uks
set dynamic_level 1
set basis Def2-TZVPPD
set mom_start 10

optimize("GAM")
frequencies("GAM")
--------------------------------------------------------------------------

  Memory set to 134.110 GiB by Python driver.

Scratch directory: /tmp/
gradient() will perform analytic gradient computation.

*** tstart() called on compute322.bc4.acrc.priv
*** at Fri Nov  5 13:30:16 2021

   => Loading Basis Set <=

    Name: DEF2-TZVPPD
    Role: ORBITAL
    Keyword: BASIS
    atoms 1-3 entry CU         line  1290 file /mnt/storage/home/zw18965/.conda/envs/p4env/share/psi4/basis/def2-tzvppd.gbs 


         ---------------------------------------------------------
                                   SCF
               by Justin Turney, Rob Parrish, Andy Simmonett
                          and Daniel G. A. Smith
                              UKS Reference
                       28 Threads, 137329 MiB Core
         ---------------------------------------------------------

  ==> Geometry <==

    Molecular point group: c2v
    Full point group: C2v

    Geometry (in Angstrom), charge = 0, multiplicity = 2:

       Center              X                  Y                   Z               Mass       
    ------------   -----------------  -----------------  -----------------  -----------------
         CU           0.000000000000    -0.000000000000     1.346828000000    62.929597720000
         CU           1.166387000000     0.000000000000    -0.673414000000    62.929597720000
         CU          -1.166387000000    -0.000000000000    -0.673414000000    62.929597720000

  Running in c2v symmetry.

  Rotational constants: A =      0.09845  B =      0.09845  C =      0.04923 [cm^-1]
  Rotational constants: A =   2951.52800  B =   2951.52667  C =   1475.76367 [MHz]
  Nuclear repulsion =  572.328889239998603

  Charge       = 0
  Multiplicity = 2
  Electrons    = 87
  Nalpha       = 44
  Nbeta        = 43

  ==> Algorithm <==

  SCF Algorithm Type is DF.
  DIIS enabled.
  MOM enabled.
  Fractional occupation disabled.
  Guess Type is SAD.
  Energy threshold   = 1.00e-08
  Density threshold  = 1.00e-08
  Integral threshold = 1.00e-12

  ==> Primary Basis <==

  Basis Set: DEF2-TZVPPD
    Blend: DEF2-TZVPPD
    Number of shells: 57
    Number of basis functions: 201
    Number of Cartesian functions: 249
    Spherical Harmonics?: true
    Max angular momentum: 4

  ==> DFT Potential <==

   => Composite Functional: GAM <= 

   GAM GGA Minessota Exchange-Correlation Functional

    H.S. Yu, et al., Phys. Chem. Chem. Phys. 17, 12146, 2015


    Deriv               =              1
    GGA                 =           TRUE
    Meta                =          FALSE

    Exchange Hybrid     =          FALSE
    MP2 Hybrid          =          FALSE

   => Exchange Functionals <=

    1.0000     XC_GGA_X_GAM

   => Correlation Functionals <=

    1.0000     XC_GGA_C_GAM

   => LibXC Density Thresholds  <==

    XC_GGA_C_GAM:  1.00E-14 
    XC_GGA_X_GAM:  1.00E-14 

   => Molecular Quadrature <=

    Radial Scheme          =       TREUTLER
    Pruning Scheme         =           NONE
    Nuclear Scheme         =       TREUTLER

    BS radius alpha        =              1
    Pruning alpha          =              1
    Radial Points          =             75
    Spherical Points       =            302
    Total Points           =          65289
    Total Blocks           =            594
    Max Points             =            255
    Max Functions          =            191
    Weights Tolerance      =       1.00E-15

   => Loading Basis Set <=

    Name: (DEF2-TZVPPD AUX)
    Role: JKFIT
    Keyword: DF_BASIS_SCF
    atoms 1-3 entry CU         line  2356 file /mnt/storage/home/zw18965/.conda/envs/p4env/share/psi4/basis/def2-universal-jkfit.gbs 

  ==> Integral Setup <==

  DFHelper Memory: AOs need 0.247 GiB; user supplied 100.350 GiB. Using in-core AOs.

  ==> MemDFJK: Density-Fitted J/K Matrices <==

    J tasked:                   Yes
    K tasked:                    No
    wK tasked:                   No
    OpenMP threads:              28
    Memory [MiB]:            102758
    Algorithm:                 Core
    Schwarz Cutoff:           1E-12
    Mask sparsity (%):       6.8810
    Fitting Condition:        1E-10

   => Auxiliary Basis Set <=

  Basis Set: (DEF2-TZVPPD AUX)
    Blend: DEF2-UNIVERSAL-JKFIT
    Number of shells: 174
    Number of basis functions: 792
    Number of Cartesian functions: 1131
    Spherical Harmonics?: true
    Max angular momentum: 6

  Cached 100.0% of DFT collocation blocks in 0.232 [GiB].

  Minimum eigenvalue in the overlap matrix is 6.2770947454E-04.
  Reciprocal condition number of the overlap matrix is 1.2083655289E-04.
    Using symmetric orthogonalization.

  ==> Pre-Iterations <==

  SCF Guess: Superposition of Atomic Densities via on-the-fly atomic UHF (no occupation information).

   -------------------------
    Irrep   Nso     Nmo    
   -------------------------
     A1        70      70 
     A2        32      32 
     B1        59      59 
     B2        40      40 
   -------------------------
    Total     201     201
   -------------------------

  ==> Iterations <==

                           Total Energy        Delta E     RMS |[F,P]|

   @DF-UKS iter SAD: -4918.05472062778244   -4.91805e+03   0.00000e+00 
    Occupation by irrep:
             A1    A2    B1    B2 
    DOCC [    18,    3,   14,    7 ]
    SOCC [     2,    0,    0,    1 ]

   @DF-UKS iter   1: -4913.97565978901457    4.07906e+00   7.50977e-02 DIIS
    Occupation by irrep:
             A1    A2    B1    B2 
    DOCC [    18,    5,   13,    7 ]
    SOCC [     1,    0,    0,    0 ]

   @DF-UKS iter   2: -4774.01908497680597    1.39957e+02   1.63976e-01 DIIS
    Occupation by irrep:
             A1    A2    B1    B2 
    DOCC [    19,    4,   13,    7 ]
    SOCC [     0,    0,    1,    0 ]

   @DF-UKS iter   3: -4921.97796885648768   -1.47959e+02   2.68704e-02 DIIS
    Occupation by irrep:
             A1    A2    B1    B2 
    DOCC [    18,    4,   14,    7 ]
    SOCC [     1,    0,    0,    0 ]

   @DF-UKS iter   4: -4850.67656724398239    7.13014e+01   1.07749e-01 DIIS
    Occupation by irrep:
             A1    A2    B1    B2 
    DOCC [    19,    4,   12,    8 ]
    SOCC [     0,    1,    0,    0 ]

   @DF-UKS iter   5: -4886.91152230396074   -3.62350e+01   6.40732e-02 DIIS
    Occupation by irrep:
             A1    A2    B1    B2 
    DOCC [    18,    5,   13,    7 ]
    SOCC [     1,    0,    0,    0 ]

   @DF-UKS iter   6: -4914.83115014067243   -2.79196e+01   5.25969e-02 DIIS
   @DF-UKS iter   7: -4923.85411667874905   -9.02297e+00   1.51939e-02 DIIS
    Occupation by irrep:
             A1    A2    B1    B2 
    DOCC [    18,    5,   13,    7 ]
    SOCC [     0,    0,    1,    0 ]

   @DF-UKS iter   8: -4924.20563934356596   -3.51523e-01   7.09016e-03 DIIS
    Occupation by irrep:
             A1    A2    B1    B2 
    DOCC [    18,    5,   13,    7 ]
    SOCC [     1,    0,    0,    0 ]

   @DF-UKS iter   9: -4924.32643421963894   -1.20795e-01   3.36196e-03 DIIS
    Occupation by irrep:
             A1    A2    B1    B2 
    DOCC [    18,    5,   13,    7 ]
    SOCC [     0,    0,    1,    0 ]

   @DF-UKS iter  10: -4924.37262454378833   -4.61903e-02   1.51051e-03 DIIS/MOM
   @DF-UKS iter  11: -4924.37977345543459   -7.14891e-03   1.32731e-03 DIIS/MOM
   @DF-UKS iter  12: -4924.38844325285027   -8.66980e-03   6.21840e-04 DIIS/MOM
   @DF-UKS iter  13: -4924.39117087524755   -2.72762e-03   4.01312e-04 DIIS/MOM
   @DF-UKS iter  14: -4924.39169708655845   -5.26211e-04   2.38486e-04 DIIS/MOM
   @DF-UKS iter  15: -4924.39227224118167   -5.75155e-04   3.27239e-05 DIIS/MOM
   @DF-UKS iter  16: -4924.39228024811382   -8.00693e-06   2.03412e-05 DIIS/MOM
   @DF-UKS iter  17: -4924.39228367936630   -3.43125e-06   9.05245e-06 DIIS/MOM
   @DF-UKS iter  18: -4924.39228450938026   -8.30014e-07   1.97204e-06 DIIS/MOM
   @DF-UKS iter  19: -4924.39228454887780   -3.94975e-08   6.73582e-07 DIIS/MOM
   @DF-UKS iter  20: -4924.39228455299599   -4.11819e-09   2.14159e-07 DIIS/MOM
   @DF-UKS iter  21: -4924.39228455350167   -5.05679e-10   6.40836e-08 DIIS/MOM
   @DF-UKS iter  22: -4924.39228455356169   -6.00267e-11   3.32704e-08 DIIS/MOM
   @DF-UKS iter  23: -4924.39228455356897   -7.27596e-12   1.49997e-08 DIIS/MOM
   @DF-UKS iter  24: -4924.39228455357079   -1.81899e-12   8.13191e-09 DIIS/MOM
  Energy and wave function converged.


  ==> Post-Iterations <==

   Electrons on quadrature grid:
      Nalpha   =   43.9999958687 ; deviation = -4.131e-06
      Nbeta    =   42.9999960494 ; deviation = -3.951e-06
      Ntotal   =   86.9999919181 ; deviation = -8.082e-06 

   @Spin Contamination Metric:   9.490808015E-03
   @S^2 Expected:                7.500000000E-01
   @S^2 Observed:                7.594908080E-01
   @S   Expected:                5.000000000E-01
   @S   Observed:                5.000000000E-01

    Orbital Energies [Eh]
    ---------------------

    Alpha Occupied:                                                       

       1A1  -320.897597     1B1  -320.887304     2A1  -320.887289  
       3A1   -38.369424     2B1   -38.360842     4A1   -38.360804  
       5A1   -33.768330     3B1   -33.767321     1B2   -33.766939  
       4B1   -33.760115     6A1   -33.760114     5B1   -33.759372  
       7A1   -33.759368     1A2   -33.757157     2B2   -33.757155  
       8A1    -4.140034     9A1    -4.129002     6B1    -4.128674  
      10A1    -2.679502     7B1    -2.675657     3B2    -2.674674  
      11A1    -2.668795     8B1    -2.667223    12A1    -2.666339  
       9B1    -2.664916     4B2    -2.661694     2A2    -2.661425  
      13A1    -0.275753    10B1    -0.245402     5B2    -0.241137  
      14A1    -0.240240    15A1    -0.233491     3A2    -0.226811  
       6B2    -0.220342    16A1    -0.218506    17A1    -0.209929  
      18A1    -0.206649     7B2    -0.205753    11B1    -0.204402  
       4A2    -0.203195    12B1    -0.201290     5A2    -0.199238  
      13B1    -0.194270    14B1    -0.126925  

    Alpha Virtual:                                                        

      19A1    -0.129203     8B2    -0.066670    20A1    -0.038121  
      15B1    -0.019023    21A1    -0.018475     9B2     0.021242  
       6A2     0.023493    16B1     0.040835    22A1     0.041498  
      17B1     0.076264    23A1     0.089038    24A1     0.092941  
      10B2     0.097733    18B1     0.113892    25A1     0.116777  
      11B2     0.142763     7A2     0.142814    26A1     0.157627  
      19B1     0.176656    27A1     0.179782    12B2     0.181204  
       8A2     0.182025    20B1     0.184580    21B1     0.189912  
      28A1     0.193716    13B2     0.205362    29A1     0.257580  
      22B1     0.260635     9A2     0.284268    30A1     0.288246  
      23B1     0.309492    31A1     0.309833    10A2     0.315636  
      14B2     0.318380    24B1     0.417900    32A1     0.449250  
      25B1     0.449777    15B2     0.583408    33A1     0.589900  
      26B1     0.637938    34A1     0.637965    16B2     0.683306  
      11A2     0.686764    35A1     0.730394    27B1     0.738924  
      36A1     0.739561    17B2     0.755802    12A2     0.790540  
      18B2     0.792860    37A1     0.866240    28B1     0.867253  
      38A1     0.890863    29B1     0.892450    13A2     0.972320  
      39A1     0.984563    30B1     0.985255    19B2     1.029038  
      14A2     1.030958    40A1     1.204637    31B1     1.204763  
      32B1     1.222376    20B2     2.863938    41A1     2.925698  
      33B1     2.942159    42A1     2.947500    21B2     2.970087  
      15A2     2.977801    43A1     2.994767    34B1     2.997921  
      44A1     3.000587    35B1     3.116966    45A1     3.303380  
      46A1     3.313325    36B1     3.320687    22B2     3.328662  
      16A2     3.330941    23B2     3.339541    37B1     3.351715  
      47A1     3.352666    24B2     3.352944    48A1     3.357324  
      25B2     3.359259    38B1     3.360290    39B1     3.362358  
      17A2     3.362433    18A2     3.365007    26B2     3.365013  
      19A2     3.365968    40B1     3.368663    49A1     3.370959  
      50A1     3.395796    41B1     3.428831    51A1     3.476770  
      42B1     3.482351    20A2     3.572443    52A1     3.576404  
      27B2     3.577862    28B2     3.608754    53A1     3.627409  
      43B1     3.633713    21A2     3.651513    29B2     3.699934  
      22A2     3.706954    44B1     3.835946    54A1     3.838908  
      55A1     3.853658    45B1     3.901776    56A1     4.137136  
      46B1     4.140230    57A1    12.743817    30B2    12.745635  
      47B1    12.746035    23A2    12.746131    31B2    12.746614  
      58A1    12.746845    48B1    12.747987    59A1    12.749593  
      24A2    12.749888    60A1    12.756194    49B1    12.756628  
      50B1    12.757511    25A2    12.758322    61A1    12.758343  
      32B2    12.758419    26A2    12.759581    33B2    12.759775  
      51B1    12.760601    62A1    12.760622    63A1    12.761287  
      52B1    12.761330    27A2    12.761331    34B2    12.761361  
      35B2    12.762809    28A2    12.762817    64A1    12.763112  
      53B1    12.763181    36B2    12.879818    65A1    12.880893  
      54B1    12.880984    29A2    12.880988    37B2    12.881522  
      66A1    12.882208    55B1    12.884847    38B2    12.889497  
      30A2    12.891037    39B2    12.891348    67A1    12.891513  
      56B1    12.891656    31A2    12.895281    68A1    12.898284  
      69A1    12.898780    57B1    12.902550    40B2    12.903826  
      32A2    12.906375    58B1    12.980053    70A1    12.986428  
      59B1    12.988675  

    Beta Occupied:                                                        

       1A1  -320.897520     1B1  -320.886781     2A1  -320.886766  
       3A1   -38.369262     2B1   -38.361350     4A1   -38.361312  
       5A1   -33.768097     3B1   -33.767082     1B2   -33.766896  
       4B1   -33.760185     6A1   -33.760185     5B1   -33.759637  
       7A1   -33.759634     1A2   -33.757567     2B2   -33.757565  
       8A1    -4.139748     9A1    -4.129752     6B1    -4.129424  
      10A1    -2.679041     7B1    -2.675236     3B2    -2.674665  
      11A1    -2.669416     8B1    -2.667633    12A1    -2.666599  
       9B1    -2.665403     4B2    -2.662409     2A2    -2.662141  
      13A1    -0.271969    10B1    -0.243124     5B2    -0.240025  
      14A1    -0.237186    15A1    -0.228436     3A2    -0.225387  
       6B2    -0.217918    16A1    -0.215844    17A1    -0.208244  
       7B2    -0.204122    18A1    -0.203836    11B1    -0.201571  
       4A2    -0.201343    12B1    -0.197832     5A2    -0.195792  
      13B1    -0.190684  

    Beta Virtual:                                                         

      19A1    -0.125909    14B1    -0.124546    20A1    -0.073789  
       8B2    -0.068764    15B1    -0.035685    21A1    -0.027027  
       6A2    -0.008113     9B2     0.012208    16B1     0.015410  
      22A1     0.042869    17B1     0.059325    23A1     0.078610  
      10B2     0.086078    24A1     0.104940    18B1     0.115635  
      25A1     0.118228    26A1     0.142507    11B2     0.150229  
      19B1     0.160543     7A2     0.160551    12B2     0.166384  
       8A2     0.166771    27A1     0.170232    20B1     0.185123  
      13B2     0.191531    28A1     0.196100    21B1     0.207885  
      29A1     0.226766    22B1     0.227546     9A2     0.245132  
      30A1     0.271048    10A2     0.280278    23B1     0.285908  
      31A1     0.296804    14B2     0.302303    24B1     0.398453  
      32A1     0.446167    25B1     0.450032    33A1     0.586423  
      15B2     0.589885    26B1     0.639866    34A1     0.641725  
      16B2     0.684433    11A2     0.694093    35A1     0.732510  
      36A1     0.745267    27B1     0.754612    17B2     0.759512  
      12A2     0.789053    18B2     0.799431    28B1     0.872195  
      37A1     0.874442    29B1     0.896550    38A1     0.902122  
      13A2     0.978376    39A1     0.997202    30B1     1.002775  
      19B2     1.034878    14A2     1.045365    40A1     1.213795  
      31B1     1.218043    32B1     1.245585    20B2     2.867861  
      41A1     2.928201    33B1     2.947113    42A1     2.955269  
      21B2     2.971747    15A2     2.983114    43A1     2.997673  
      34B1     3.005721    44A1     3.007207    35B1     3.120633  
      45A1     3.306867    46A1     3.316637    36B1     3.326780  
      22B2     3.329976    16A2     3.332353    23B2     3.345778  
      37B1     3.353411    24B2     3.354752    47A1     3.354918  
      25B2     3.360728    48A1     3.360822    38B1     3.363135  
      17A2     3.364171    39B1     3.365523    26B2     3.367881  
      18A2     3.368680    19A2     3.369283    40B1     3.371335  
      49A1     3.375042    50A1     3.400559    41B1     3.432707  
      51A1     3.479189    42B1     3.487592    20A2     3.573350  
      52A1     3.578459    27B2     3.580785    28B2     3.610807  
      53A1     3.630711    43B1     3.638793    21A2     3.655101  
      29B2     3.702058    22A2     3.713975    44B1     3.841254  
      54A1     3.844341    55A1     3.855760    45B1     3.909268  
      56A1     4.139584    46B1     4.146177    57A1    12.743904  
      30B2    12.745584    23A2    12.746455    47B1    12.746491  
      31B2    12.746811    58A1    12.747043    48B1    12.748269  
      59A1    12.749472    24A2    12.749638    60A1    12.755246  
      49B1    12.755686    50B1    12.756555    25A2    12.756932  
      32B2    12.757081    61A1    12.757551    26A2    12.758297  
      33B2    12.758546    51B1    12.759109    62A1    12.759329  
      63A1    12.759886    34B2    12.760079    27A2    12.760148  
      52B1    12.760234    35B2    12.761315    28A2    12.761329  
      64A1    12.761660    53B1    12.761806    36B2    12.879981  
      65A1    12.881137    54B1    12.881212    29A2    12.881381  
      37B2    12.881737    66A1    12.882621    55B1    12.884943  
      38B2    12.889364    39B2    12.891122    30A2    12.891125  
      67A1    12.891529    56B1    12.891976    31A2    12.895502  
      68A1    12.898055    69A1    12.899119    57B1    12.902507  
      40B2    12.903927    32A2    12.905859    58B1    12.980460  
      70A1    12.986383    59B1    12.988380  

    Final Occupation by Irrep:
             A1    A2    B1    B2 
    DOCC [    18,    5,   13,    7 ]
    SOCC [     0,    0,    1,    0 ]

  @DF-UKS Final Energy: -4924.39228455357079

   => Energetics <=

    Nuclear Repulsion Energy =            572.3288892399986025
    One-Electron Energy =               -8016.5948685622761332
    Two-Electron Energy =                2725.0192828939862011
    DFT Exchange-Correlation Energy =    -205.1455881252798576
    Empirical Dispersion Energy =           0.0000000000000000
    VV10 Nonlocal Energy =                  0.0000000000000000
    Total Energy =                      -4924.3922845535707893

  UHF NO Occupations:
  HONO-2 :   17 A1 1.9995671
  HONO-1 :   18 A1 1.9975826
  HONO-0 :   14 B1 1.0000000
  LUNO+0 :   19 A1 0.0024174
  LUNO+1 :   20 A1 0.0004329
  LUNO+2 :   15 B1 0.0004138
  LUNO+3 :    6 A2 0.0003675


Computation Completed


Properties will be evaluated at   0.000000,   0.000000,   0.000000 [a0]

Properties computed using the SCF density matrix

  Nuclear Dipole Moment: [e a0]
     X:    -0.0000      Y:    -0.0000      Z:     0.0000

  Electronic Dipole Moment: [e a0]
     X:     0.0000      Y:     0.0000      Z:     0.3890

  Dipole Moment: [e a0]
     X:    -0.0000      Y:    -0.0000      Z:     0.3890     Total:     0.3890

  Dipole Moment: [D]
     X:    -0.0000      Y:    -0.0000      Z:     0.9888     Total:     0.9888


*** tstop() called on compute322.bc4.acrc.priv at Fri Nov  5 13:30:37 2021
Module time:
	user time   =     538.69 seconds =       8.98 minutes
	system time =      23.35 seconds =       0.39 minutes
	total time  =         21 seconds =       0.35 minutes
Total time:
	user time   =     538.69 seconds =       8.98 minutes
	system time =      23.35 seconds =       0.39 minutes
	total time  =         21 seconds =       0.35 minutes

*** tstart() called on compute322.bc4.acrc.priv
*** at Fri Nov  5 13:30:37 2021


         ------------------------------------------------------------
                                   SCF GRAD                          
                          Rob Parrish, Justin Turney,                
                       Andy Simmonett, and Alex Sokolov              
         ------------------------------------------------------------

  ==> Geometry <==

    Molecular point group: c2v
    Full point group: C2v

    Geometry (in Angstrom), charge = 0, multiplicity = 2:

       Center              X                  Y                   Z               Mass       
    ------------   -----------------  -----------------  -----------------  -----------------
         CU           0.000000000000    -0.000000000000     1.346828000000    62.929597720000
         CU           1.166387000000     0.000000000000    -0.673414000000    62.929597720000
         CU          -1.166387000000    -0.000000000000    -0.673414000000    62.929597720000

  Nuclear repulsion =  572.328889239998603

  ==> Basis Set <==

  Basis Set: DEF2-TZVPPD
    Blend: DEF2-TZVPPD
    Number of shells: 57
    Number of basis functions: 201
    Number of Cartesian functions: 249
    Spherical Harmonics?: true
    Max angular momentum: 4

  ==> DFJKGrad: Density-Fitted SCF Gradients <==

    Gradient:                    1
    J tasked:                  Yes
    K tasked:                   No
    wK tasked:                  No
    OpenMP threads:             28
    Integrals threads:          28
    Memory [MiB]:           102996
    Schwarz Cutoff:          1E-12
    Fitting Condition:       1E-10

   => Auxiliary Basis Set <=

  Basis Set: (DEF2-TZVPPD AUX)
    Blend: DEF2-UNIVERSAL-JKFIT
    Number of shells: 174
    Number of basis functions: 792
    Number of Cartesian functions: 1131
    Spherical Harmonics?: true
    Max angular momentum: 6

  ==> DFT Potential <==

   => Composite Functional: GAM <= 

   GAM GGA Minessota Exchange-Correlation Functional

    H.S. Yu, et al., Phys. Chem. Chem. Phys. 17, 12146, 2015


    Deriv               =              1
    GGA                 =           TRUE
    Meta                =          FALSE

    Exchange Hybrid     =          FALSE
    MP2 Hybrid          =          FALSE

   => Exchange Functionals <=

    1.0000     XC_GGA_X_GAM

   => Correlation Functionals <=

    1.0000     XC_GGA_C_GAM

   => LibXC Density Thresholds  <==

    XC_GGA_C_GAM:  1.00E-14 
    XC_GGA_X_GAM:  1.00E-14 

   => Molecular Quadrature <=

    Radial Scheme          =       TREUTLER
    Pruning Scheme         =           NONE
    Nuclear Scheme         =       TREUTLER

    BS radius alpha        =              1
    Pruning alpha          =              1
    Radial Points          =             75
    Spherical Points       =            302
    Total Points           =          65289
    Total Blocks           =            594
    Max Points             =            255
    Max Functions          =            191
    Weights Tolerance      =       1.00E-15


  -Total Gradient:
     Atom            X                  Y                   Z
    ------   -----------------  -----------------  -----------------
       1        0.000000000000    -0.000000000000    -0.009251138369
       2       -0.023550028173    -0.000000000000     0.004617765198
       3        0.023550028173     0.000000000000     0.004617765198


*** tstop() called on compute322.bc4.acrc.priv at Fri Nov  5 13:30:55 2021
Module time:
	user time   =      93.75 seconds =       1.56 minutes
	system time =       6.15 seconds =       0.10 minutes
	total time  =         18 seconds =       0.30 minutes
Total time:
	user time   =     632.50 seconds =      10.54 minutes
	system time =      29.50 seconds =       0.49 minutes
	total time  =         39 seconds =       0.65 minutes

			-----------------------------------------
			 OPTKING 2.0: for geometry optimizations 
			  - R.A. King,  Bethel University        
			-----------------------------------------
	At level 1: Red. Int., RFO, no backsteps, dynamic trust

	Internal coordinates to be generated automatically.
	Detected frag 1 with atoms:  1 2 3
	---Fragment 1 Bond Connectivity---
	 1 : 2 3
	 2 : 1 3
	 3 : 1 2

	---Fragment 1 Geometry and Gradient---
	 CU          0.0000000000       -0.0000000000        2.5451360581
	 CU          2.2041519863        0.0000000000       -1.2725680290
	 CU         -2.2041519863       -0.0000000000       -1.2725680290
	             0.0000000000       -0.0000000000       -0.0092511384
	            -0.0235500282       -0.0000000000        0.0046177652
	             0.0235500282        0.0000000000        0.0046177652

	Previous optimization step data not found.  Starting new optimization.

	---Fragment 1 Intrafragment Coordinates---
	 - Coordinate -           - BOHR/RAD -       - ANG/DEG -
	 R(1,2)           =         4.408305	       2.332774
	 R(1,3)           =         4.408305	       2.332774
	 R(2,3)           =         4.408304	       2.332774
	 B(1,2,3)         =         1.047198	      60.000006
	 B(1,3,2)         =         1.047198	      60.000006
	 B(2,1,3)         =         1.047197	      59.999989

	Current energy   :     -4924.3922845536

	Generating empirical Hessian (Schlegel '84) for each fragment.
	Taking RFO optimization step.
	Going to follow RFO solution 1.
	Using RFO vector 1.
	Norm of target step-size    0.15223
	Projected energy change by RFO approximation:        -0.0016317186

	Back-transformation to cartesian coordinates...
	Successfully converged to displaced geometry.

	--- Internal Coordinate Step in ANG or DEG, aJ/ANG or AJ/DEG ---
	 ---------------------------------------------------------------------------
	   Coordinate                Previous        Force       Change         New 
	   ----------                --------       ------       ------       ------
	    1 R(1,2)          =      2.332774     0.049688     0.024723     2.357497
	    2 R(1,3)          =      2.332774     0.049688     0.024723     2.357497
	    3 R(2,3)          =      2.332774     0.160616     0.071057     2.403831
	    4 B(1,2,3)        =     60.000006    -0.000134    -0.652303    59.347702
	    5 B(1,3,2)        =     60.000006    -0.000134    -0.652303    59.347702
	    6 B(2,1,3)        =     59.999989     0.000268     1.304606    61.304595
	 ---------------------------------------------------------------------------
	Successfully symmetrized geometry.

  ==> Convergence Check <==

  Measures of convergence in internal coordinates in au.
  Criteria marked as inactive (o), active & met (*), and active & unmet ( ).
  --------------------------------------------------------------------------------------------- ~
   Step     Total Energy     Delta E     MAX Force     RMS Force      MAX Disp      RMS Disp    ~
  --------------------------------------------------------------------------------------------- ~
    Convergence Criteria    1.00e-06 *    3.00e-04 *             o    1.20e-03 *             o  ~
  --------------------------------------------------------------------------------------------- ~
      1   -4924.39228455   -4.92e+03      1.95e-02      8.86e-03 o    1.34e-01      6.21e-02 o  ~
  ---------------------------------------------------------------------------------------------

	Writing optimization data to binary file.
	Structure for next step:
	Cartesian Geometry (in Angstrom)
	   CU     0.0000000000   0.0000000000   1.3520670088
	   CU     1.2019152827   0.0000000000  -0.6760335044
	   CU    -1.2019152827  -0.0000000000  -0.6760335044
			--------------------------
			 OPTKING Finished Execution 
			--------------------------

    Structure for next step:
    Molecular point group: c2v
    Full point group: C2v

    Geometry (in Angstrom), charge = 0, multiplicity = 2:

    CU           0.000000000000    -0.000000000000     1.352067014098
    CU           1.201915287443     0.000000000000    -0.676033507049
    CU          -1.201915287443    -0.000000000000    -0.676033507049


Scratch directory: /tmp/
gradient() will perform analytic gradient computation.

*** tstart() called on compute322.bc4.acrc.priv
*** at Fri Nov  5 13:30:55 2021

   => Loading Basis Set <=

    Name: DEF2-TZVPPD
    Role: ORBITAL
    Keyword: BASIS
    atoms 1-3 entry CU         line  1290 file /mnt/storage/home/zw18965/.conda/envs/p4env/share/psi4/basis/def2-tzvppd.gbs 


         ---------------------------------------------------------
                                   SCF
               by Justin Turney, Rob Parrish, Andy Simmonett
                          and Daniel G. A. Smith
                              UKS Reference
                       28 Threads, 137329 MiB Core
         ---------------------------------------------------------

  ==> Geometry <==

    Molecular point group: c2v
    Full point group: C2v

    Geometry (in Angstrom), charge = 0, multiplicity = 2:

       Center              X                  Y                   Z               Mass       
    ------------   -----------------  -----------------  -----------------  -----------------
         CU           0.000000000000    -0.000000000000     1.352067014098    62.929597720000
         CU           1.201915287443     0.000000000000    -0.676033507049    62.929597720000
         CU          -1.201915287443    -0.000000000000    -0.676033507049    62.929597720000

  Running in c2v symmetry.

  Rotational constants: A =      0.09769  B =      0.09272  C =      0.04757 [cm^-1]
  Rotational constants: A =   2928.69772  B =   2779.61425  C =   1426.10459 [MHz]
  Nuclear repulsion =  562.688327612710509

  Charge       = 0
  Multiplicity = 2
  Electrons    = 87
  Nalpha       = 44
  Nbeta        = 43

  ==> Algorithm <==

  SCF Algorithm Type is DF.
  DIIS enabled.
  MOM enabled.
  Fractional occupation disabled.
  Guess Type is READ.
  Energy threshold   = 1.00e-08
  Density threshold  = 1.00e-08
  Integral threshold = 1.00e-12

  ==> Primary Basis <==

  Basis Set: DEF2-TZVPPD
    Blend: DEF2-TZVPPD
    Number of shells: 57
    Number of basis functions: 201
    Number of Cartesian functions: 249
    Spherical Harmonics?: true
    Max angular momentum: 4

  ==> DFT Potential <==

   => Composite Functional: GAM <= 

   GAM GGA Minessota Exchange-Correlation Functional

    H.S. Yu, et al., Phys. Chem. Chem. Phys. 17, 12146, 2015


    Deriv               =              1
    GGA                 =           TRUE
    Meta                =          FALSE

    Exchange Hybrid     =          FALSE
    MP2 Hybrid          =          FALSE

   => Exchange Functionals <=

    1.0000     XC_GGA_X_GAM

   => Correlation Functionals <=

    1.0000     XC_GGA_C_GAM

   => LibXC Density Thresholds  <==

    XC_GGA_C_GAM:  1.00E-14 
    XC_GGA_X_GAM:  1.00E-14 

   => Molecular Quadrature <=

    Radial Scheme          =       TREUTLER
    Pruning Scheme         =           NONE
    Nuclear Scheme         =       TREUTLER

    BS radius alpha        =              1
    Pruning alpha          =              1
    Radial Points          =             75
    Spherical Points       =            302
    Total Points           =          65297
    Total Blocks           =            588
    Max Points             =            256
    Max Functions          =            191
    Weights Tolerance      =       1.00E-15

   => Loading Basis Set <=

    Name: (DEF2-TZVPPD AUX)
    Role: JKFIT
    Keyword: DF_BASIS_SCF
    atoms 1-3 entry CU         line  2356 file /mnt/storage/home/zw18965/.conda/envs/p4env/share/psi4/basis/def2-universal-jkfit.gbs 

   => Loading Basis Set <=

    Name: DEF2-TZVPPD
    Role: ORBITAL
    Keyword: BASIS
    atoms 1-3 entry CU         line  1290 file /mnt/storage/home/zw18965/.conda/envs/p4env/share/psi4/basis/def2-tzvppd.gbs 

  Reading orbitals from file /tmp/Cu03N0_D3H.default.15128.180.npy, no projection.

  ==> Integral Setup <==

  DFHelper Memory: AOs need 0.245 GiB; user supplied 100.351 GiB. Using in-core AOs.

  ==> MemDFJK: Density-Fitted J/K Matrices <==

    J tasked:                   Yes
    K tasked:                    No
    wK tasked:                   No
    OpenMP threads:              28
    Memory [MiB]:            102759
    Algorithm:                 Core
    Schwarz Cutoff:           1E-12
    Mask sparsity (%):       7.4800
    Fitting Condition:        1E-10

   => Auxiliary Basis Set <=

  Basis Set: (DEF2-TZVPPD AUX)
    Blend: DEF2-UNIVERSAL-JKFIT
    Number of shells: 174
    Number of basis functions: 792
    Number of Cartesian functions: 1131
    Spherical Harmonics?: true
    Max angular momentum: 6

  Cached 100.0% of DFT collocation blocks in 0.232 [GiB].

  Minimum eigenvalue in the overlap matrix is 6.4876799883E-04.
  Reciprocal condition number of the overlap matrix is 1.2534438183E-04.
    Using symmetric orthogonalization.

  ==> Pre-Iterations <==

  SCF Guess: Orbitals guess was supplied from a previous computation.

   -------------------------------------------------------
    Irrep   Nso     Nmo     Nalpha   Nbeta   Ndocc  Nsocc
   -------------------------------------------------------
     A1        70      70      18      18      18       0
     A2        32      32       5       5       5       0
     B1        59      59      14      13      13       1
     B2        40      40       7       7       7       0
   -------------------------------------------------------
    Total     201     201      44      43      43       1
   -------------------------------------------------------

  ==> Iterations <==

                           Total Energy        Delta E     RMS |[F,P]|

   @DF-UKS iter   0: -4924.41030375348964   -4.92441e+03   1.75637e-03 
    Occupation by irrep:
             A1    A2    B1    B2 
    DOCC [    18,    5,   13,    7 ]
    SOCC [     0,    0,    1,    0 ]

   @DF-UKS iter   1: -4924.37875350528702    3.15502e-02   1.19999e-03 DIIS
   @DF-UKS iter   2: -4924.17458231202909    2.04171e-01   7.55379e-03 DIIS
   @DF-UKS iter   3: -4924.36568251953395   -1.91100e-01   1.88853e-03 DIIS
   @DF-UKS iter   4: -4924.38894542765411   -2.32629e-02   1.12732e-03 DIIS
   @DF-UKS iter   5: -4924.39137158227823   -2.42615e-03   6.43518e-04 DIIS
    Occupation by irrep:
             A1    A2    B1    B2 
    DOCC [    18,    5,   13,    7 ]
    SOCC [     1,    0,    0,    0 ]

   @DF-UKS iter   6: -4924.39360664825836   -2.23507e-03   3.64961e-04 DIIS
   @DF-UKS iter   7: -4924.38265785856311    1.09488e-02   1.01506e-03 DIIS
    Occupation by irrep:
             A1    A2    B1    B2 
    DOCC [    18,    5,   13,    7 ]
    SOCC [     0,    0,    1,    0 ]

   @DF-UKS iter   8: -4924.38419369526491   -1.53584e-03   9.41601e-04 DIIS
   @DF-UKS iter   9: -4924.39263034627947   -8.43665e-03   4.86279e-04 DIIS
   @DF-UKS iter  10: -4924.39216985258281    4.60494e-04   5.21890e-04 DIIS/MOM
   @DF-UKS iter  11: -4924.39214818208347    2.16705e-05   5.20701e-04 DIIS/MOM
   @DF-UKS iter  12: -4924.39297114450528   -8.22962e-04   4.40482e-04 DIIS/MOM
   @DF-UKS iter  13: -4924.39460422009688   -1.63308e-03   1.94061e-04 DIIS/MOM
   @DF-UKS iter  14: -4924.39494919077515   -3.44971e-04   4.01581e-05 DIIS/MOM
   @DF-UKS iter  15: -4924.39493452669558    1.46641e-05   5.04366e-05 DIIS/MOM
   @DF-UKS iter  16: -4924.39496163716831   -2.71105e-05   2.55731e-06 DIIS/MOM
   @DF-UKS iter  17: -4924.39496168699770   -4.98294e-08   9.70265e-07 DIIS/MOM
   @DF-UKS iter  18: -4924.39496169266476   -5.66706e-09   2.15754e-07 DIIS/MOM
   @DF-UKS iter  19: -4924.39496169316226   -4.97494e-10   7.88109e-08 DIIS/MOM
   @DF-UKS iter  20: -4924.39496169322865   -6.63931e-11   4.36932e-08 DIIS/MOM
   @DF-UKS iter  21: -4924.39496169324593   -1.72804e-11   1.79603e-08 DIIS/MOM
   @DF-UKS iter  22: -4924.39496169324593    0.00000e+00   5.25005e-09 DIIS/MOM
  Energy and wave function converged.


  ==> Post-Iterations <==

   Electrons on quadrature grid:
      Nalpha   =   43.9999960324 ; deviation = -3.968e-06
      Nbeta    =   42.9999962184 ; deviation = -3.782e-06
      Ntotal   =   86.9999922508 ; deviation = -7.749e-06 

   @Spin Contamination Metric:   9.535840466E-03
   @S^2 Expected:                7.500000000E-01
   @S^2 Observed:                7.595358405E-01
   @S   Expected:                5.000000000E-01
   @S   Observed:                5.000000000E-01

    Orbital Energies [Eh]
    ---------------------

    Alpha Occupied:                                                       

       1A1  -320.896640     1B1  -320.885695     2A1  -320.885680  
       3A1   -38.368349     2B1   -38.358852     4A1   -38.358814  
       5A1   -33.767224     3B1   -33.766290     1B2   -33.765880  
       4B1   -33.758104     6A1   -33.758102     5B1   -33.757423  
       7A1   -33.757419     1A2   -33.755274     2B2   -33.755273  
       8A1    -4.138907     9A1    -4.126977     6B1    -4.126761  
      10A1    -2.678107     7B1    -2.674611     3B2    -2.673611  
      11A1    -2.666352     8B1    -2.665354    12A1    -2.664273  
       9B1    -2.663107     4B2    -2.659917     2A2    -2.659729  
      13A1    -0.271440    10B1    -0.243325     5B2    -0.237979  
      14A1    -0.236317    15A1    -0.230590     3A2    -0.225501  
       6B2    -0.217236    16A1    -0.217075    17A1    -0.208151  
      18A1    -0.205177     7B2    -0.204646    11B1    -0.203816  
       4A2    -0.202305    12B1    -0.200642     5A2    -0.198911  
      13B1    -0.194328    14B1    -0.128224  

    Alpha Virtual:                                                        

      19A1    -0.128648     8B2    -0.065813    20A1    -0.038524  
      15B1    -0.020241    21A1    -0.018898     9B2     0.021095  
       6A2     0.021780    16B1     0.040730    22A1     0.041844  
      17B1     0.075346    23A1     0.089285    24A1     0.092950  
      10B2     0.098182    18B1     0.113614    25A1     0.117015  
       7A2     0.141858    11B2     0.143092    26A1     0.156650  
      19B1     0.174841    27A1     0.179633    12B2     0.179877  
       8A2     0.181190    20B1     0.183968    21B1     0.187171  
      28A1     0.192901    13B2     0.204282    29A1     0.256215  
      22B1     0.258553     9A2     0.282515    30A1     0.288793  
      23B1     0.308341    31A1     0.309574    10A2     0.313517  
      14B2     0.317579    24B1     0.413825    25B1     0.441373  
      32A1     0.445929    33A1     0.590284    15B2     0.590338  
      26B1     0.635211    34A1     0.638850    16B2     0.682938  
      11A2     0.683075    35A1     0.731423    27B1     0.735208  
      36A1     0.738874    17B2     0.753203    12A2     0.789757  
      18B2     0.796576    28B1     0.859385    37A1     0.865111  
      38A1     0.882291    29B1     0.887851    13A2     0.967221  
      30B1     0.975370    39A1     0.981477    14A2     1.021936  
      19B2     1.026241    31B1     1.184920    40A1     1.197615  
      32B1     1.215395    20B2     2.864212    41A1     2.912671  
      42A1     2.933742    33B1     2.935707    21B2     2.970897  
      43A1     2.974615    15A2     2.975513    44A1     3.011241  
      34B1     3.025404    35B1     3.124950    45A1     3.305683  
      36B1     3.310744    46A1     3.311269    22B2     3.331345  
      16A2     3.332921    23B2     3.344666    37B1     3.352852  
      24B2     3.354191    47A1     3.356982    48A1     3.359439  
      25B2     3.360122    38B1     3.360831    17A2     3.362936  
      39B1     3.363955    18A2     3.365393    26B2     3.366631  
      19A2     3.367058    40B1     3.369857    49A1     3.371591  
      50A1     3.398121    41B1     3.409229    42B1     3.465499  
      51A1     3.470110    20A2     3.570615    27B2     3.571344  
      52A1     3.571484    28B2     3.596600    53A1     3.625696  
      43B1     3.629925    21A2     3.649212    29B2     3.696640  
      22A2     3.702347    54A1     3.810424    55A1     3.822603  
      44B1     3.829327    45B1     3.895475    56A1     4.102784  
      46B1     4.108271    57A1    12.745390    30B2    12.746694  
      47B1    12.746721    23A2    12.747423    31B2    12.747761  
      58A1    12.748015    48B1    12.749009    59A1    12.750545  
      24A2    12.750679    60A1    12.758120    49B1    12.758477  
      50B1    12.759541    25A2    12.760264    61A1    12.760267  
      32B2    12.760335    26A2    12.761380    33B2    12.761578  
      51B1    12.762256    62A1    12.762321    27A2    12.763008  
      63A1    12.763047    34B2    12.763062    52B1    12.763122  
      35B2    12.764402    28A2    12.764413    64A1    12.764756  
      53B1    12.764817    36B2    12.880997    54B1    12.882102  
      29A2    12.882675    65A1    12.883077    37B2    12.883098  
      66A1    12.885913    55B1    12.888206    38B2    12.891745  
      30A2    12.892694    56B1    12.893246    67A1    12.893573  
      39B2    12.893605    31A2    12.895642    68A1    12.899168  
      57B1    12.899817    69A1    12.901757    32A2    12.903588  
      40B2    12.903646    58B1    12.963877    59B1    12.972444  
      70A1    12.977071  

    Beta Occupied:                                                        

       1A1  -320.896568     1B1  -320.885162     2A1  -320.885147  
       3A1   -38.368153     2B1   -38.359399     4A1   -38.359360  
       5A1   -33.766966     3B1   -33.766027     1B2   -33.765822  
       4B1   -33.758230     6A1   -33.758228     5B1   -33.757691  
       7A1   -33.757686     1A2   -33.755711     2B2   -33.755709  
       8A1    -4.138565     9A1    -4.127789     6B1    -4.127573  
      10A1    -2.677577     7B1    -2.674125     3B2    -2.673565  
      11A1    -2.666997     8B1    -2.665814    12A1    -2.664628  
       9B1    -2.663661     4B2    -2.660690     2A2    -2.660502  
      13A1    -0.267518    10B1    -0.241024     5B2    -0.236889  
      14A1    -0.233269    15A1    -0.225586     3A2    -0.224101  
       6B2    -0.214731    16A1    -0.214613    17A1    -0.206397  
       7B2    -0.202934    18A1    -0.202114    11B1    -0.200941  
       4A2    -0.200401    12B1    -0.197203     5A2    -0.195509  
      13B1    -0.190783  

    Beta Virtual:                                                         

      19A1    -0.125342    14B1    -0.124818    20A1    -0.073011  
       8B2    -0.067797    15B1    -0.036107    21A1    -0.026576  
       6A2    -0.008185     9B2     0.012163    16B1     0.014700  
      22A1     0.042501    17B1     0.058687    23A1     0.078682  
      10B2     0.087113    24A1     0.104947    18B1     0.114761  
      25A1     0.117604    26A1     0.142550    11B2     0.150116  
      19B1     0.159457     7A2     0.160329     8A2     0.165345  
      12B2     0.165668    27A1     0.169450    20B1     0.183801  
      13B2     0.191031    28A1     0.195441    21B1     0.206399  
      29A1     0.226233    22B1     0.226282     9A2     0.244425  
      30A1     0.270588    10A2     0.279024    23B1     0.284870  
      31A1     0.296838    14B2     0.301294    24B1     0.392413  
      25B1     0.441955    32A1     0.442473    33A1     0.586313  
      15B2     0.597056    26B1     0.637411    34A1     0.642558  
      16B2     0.684218    11A2     0.690638    35A1     0.735087  
      36A1     0.743366    27B1     0.750955    17B2     0.756760  
      12A2     0.788533    18B2     0.803611    28B1     0.864041  
      37A1     0.874082    29B1     0.891985    38A1     0.893312  
      13A2     0.973676    30B1     0.992253    39A1     0.993334  
      19B2     1.032116    14A2     1.035526    31B1     1.200820  
      40A1     1.206630    32B1     1.234857    20B2     2.868160  
      41A1     2.913811    33B1     2.940761    42A1     2.942625  
      21B2     2.972629    43A1     2.980427    15A2     2.981125  
      44A1     3.015079    34B1     3.032807    35B1     3.129331  
      45A1     3.308094    46A1     3.315555    36B1     3.317289  
      22B2     3.332744    16A2     3.334308    23B2     3.349706  
      37B1     3.354183    24B2     3.356847    47A1     3.359797  
      25B2     3.361644    48A1     3.362752    38B1     3.364046  
      17A2     3.364760    39B1     3.367410    18A2     3.369411  
      26B2     3.369638    19A2     3.370465    40B1     3.372313  
      49A1     3.375345    50A1     3.403041    41B1     3.413023  
      42B1     3.470142    51A1     3.472628    20A2     3.571560  
      52A1     3.573751    27B2     3.574541    28B2     3.598632  
      53A1     3.628820    43B1     3.634843    21A2     3.652792  
      29B2     3.698800    22A2     3.709040    54A1     3.814312  
      55A1     3.826171    44B1     3.834639    45B1     3.902785  
      56A1     4.105537    46B1     4.114188    57A1    12.745503  
      30B2    12.746703    47B1    12.747253    23A2    12.747804  
      31B2    12.748003    58A1    12.748310    48B1    12.749355  
      59A1    12.750460    24A2    12.750476    60A1    12.757093  
      49B1    12.757459    50B1    12.758505    25A2    12.758830  
      32B2    12.758949    61A1    12.759389    26A2    12.760019  
      33B2    12.760256    51B1    12.760715    62A1    12.760911  
      63A1    12.761650    34B2    12.761711    27A2    12.761730  
      52B1    12.761934    35B2    12.762870    28A2    12.762888  
      64A1    12.763257    53B1    12.763393    36B2    12.881221  
      54B1    12.882382    29A2    12.883138    37B2    12.883344  
      65A1    12.883611    66A1    12.886147    55B1    12.888260  
      38B2    12.891653    30A2    12.892694    39B2    12.893228  
      56B1    12.893552    67A1    12.893567    31A2    12.895813  
      68A1    12.899624    57B1    12.899718    69A1    12.901250  
      32A2    12.903052    40B2    12.903694    58B1    12.963514  
      59B1    12.972878    70A1    12.977001  

    Final Occupation by Irrep:
             A1    A2    B1    B2 
    DOCC [    18,    5,   13,    7 ]
    SOCC [     0,    0,    1,    0 ]

  @DF-UKS Final Energy: -4924.39496169324593

   => Energetics <=

    Nuclear Repulsion Energy =            562.6883276127105091
    One-Electron Energy =               -7997.4679849411677424
    Two-Electron Energy =                2715.5240800835117625
    DFT Exchange-Correlation Energy =    -205.1393844483015698
    Empirical Dispersion Energy =           0.0000000000000000
    VV10 Nonlocal Energy =                  0.0000000000000000
    Total Energy =                      -4924.3949616932477511

  UHF NO Occupations:
  HONO-2 :   17 A1 1.9995822
  HONO-1 :   18 A1 1.9975412
  HONO-0 :   14 B1 1.0000000
  LUNO+0 :   19 A1 0.0024588
  LUNO+1 :   20 A1 0.0004178
  LUNO+2 :   15 B1 0.0004035
  LUNO+3 :    6 A2 0.0003618


Computation Completed


Properties will be evaluated at   0.000000,   0.000000,   0.000000 [a0]

Properties computed using the SCF density matrix

  Nuclear Dipole Moment: [e a0]
     X:    -0.0000      Y:    -0.0000      Z:     0.0000

  Electronic Dipole Moment: [e a0]
     X:     0.0000      Y:     0.0000      Z:     0.3783

  Dipole Moment: [e a0]
     X:    -0.0000      Y:    -0.0000      Z:     0.3783     Total:     0.3783

  Dipole Moment: [D]
     X:    -0.0000      Y:    -0.0000      Z:     0.9614     Total:     0.9614


*** tstop() called on compute322.bc4.acrc.priv at Fri Nov  5 13:31:14 2021
Module time:
	user time   =     498.11 seconds =       8.30 minutes
	system time =      14.88 seconds =       0.25 minutes
	total time  =         19 seconds =       0.32 minutes
Total time:
	user time   =    1131.10 seconds =      18.85 minutes
	system time =      44.40 seconds =       0.74 minutes
	total time  =         58 seconds =       0.97 minutes

*** tstart() called on compute322.bc4.acrc.priv
*** at Fri Nov  5 13:31:14 2021


         ------------------------------------------------------------
                                   SCF GRAD                          
                          Rob Parrish, Justin Turney,                
                       Andy Simmonett, and Alex Sokolov              
         ------------------------------------------------------------

  ==> Geometry <==

    Molecular point group: c2v
    Full point group: C2v

    Geometry (in Angstrom), charge = 0, multiplicity = 2:

       Center              X                  Y                   Z               Mass       
    ------------   -----------------  -----------------  -----------------  -----------------
         CU           0.000000000000    -0.000000000000     1.352067014098    62.929597720000
         CU           1.201915287443     0.000000000000    -0.676033507049    62.929597720000
         CU          -1.201915287443    -0.000000000000    -0.676033507049    62.929597720000

  Nuclear repulsion =  562.688327612710509

  ==> Basis Set <==

  Basis Set: DEF2-TZVPPD
    Blend: DEF2-TZVPPD
    Number of shells: 57
    Number of basis functions: 201
    Number of Cartesian functions: 249
    Spherical Harmonics?: true
    Max angular momentum: 4

  ==> DFJKGrad: Density-Fitted SCF Gradients <==

    Gradient:                    1
    J tasked:                  Yes
    K tasked:                   No
    wK tasked:                  No
    OpenMP threads:             28
    Integrals threads:          28
    Memory [MiB]:           102996
    Schwarz Cutoff:          1E-12
    Fitting Condition:       1E-10

   => Auxiliary Basis Set <=

  Basis Set: (DEF2-TZVPPD AUX)
    Blend: DEF2-UNIVERSAL-JKFIT
    Number of shells: 174
    Number of basis functions: 792
    Number of Cartesian functions: 1131
    Spherical Harmonics?: true
    Max angular momentum: 6

  ==> DFT Potential <==

   => Composite Functional: GAM <= 

   GAM GGA Minessota Exchange-Correlation Functional

    H.S. Yu, et al., Phys. Chem. Chem. Phys. 17, 12146, 2015


    Deriv               =              1
    GGA                 =           TRUE
    Meta                =          FALSE

    Exchange Hybrid     =          FALSE
    MP2 Hybrid          =          FALSE

   => Exchange Functionals <=

    1.0000     XC_GGA_X_GAM

   => Correlation Functionals <=

    1.0000     XC_GGA_C_GAM

   => LibXC Density Thresholds  <==

    XC_GGA_C_GAM:  1.00E-14 
    XC_GGA_X_GAM:  1.00E-14 

   => Molecular Quadrature <=

    Radial Scheme          =       TREUTLER
    Pruning Scheme         =           NONE
    Nuclear Scheme         =       TREUTLER

    BS radius alpha        =              1
    Pruning alpha          =              1
    Radial Points          =             75
    Spherical Points       =            302
    Total Points           =          65297
    Total Blocks           =            588
    Max Points             =            256
    Max Functions          =            191
    Weights Tolerance      =       1.00E-15


  -Total Gradient:
     Atom            X                  Y                   Z
    ------   -----------------  -----------------  -----------------
       1        0.000000000000    -0.000000000000    -0.004844226431
       2       -0.015214858773    -0.000000000000     0.002403103411
       3        0.015214858773     0.000000000000     0.002403103411


*** tstop() called on compute322.bc4.acrc.priv at Fri Nov  5 13:31:30 2021
Module time:
	user time   =      95.09 seconds =       1.58 minutes
	system time =       2.40 seconds =       0.04 minutes
	total time  =         16 seconds =       0.27 minutes
Total time:
	user time   =    1226.25 seconds =      20.44 minutes
	system time =      46.80 seconds =       0.78 minutes
	total time  =         74 seconds =       1.23 minutes

			-----------------------------------------
			 OPTKING 2.0: for geometry optimizations 
			  - R.A. King,  Bethel University        
			-----------------------------------------
	At level 1: Red. Int., RFO, no backsteps, dynamic trust

	Previous internal coordinate definitions found.
	---Fragment 1 Geometry and Gradient---
	 CU          0.0000000000       -0.0000000000        2.5550363599
	 CU          2.2712907193        0.0000000000       -1.2775181800
	 CU         -2.2712907193       -0.0000000000       -1.2775181800
	             0.0000000000       -0.0000000000       -0.0048442264
	            -0.0152148588       -0.0000000000        0.0024031034
	             0.0152148588        0.0000000000        0.0024031034

	---Fragment 1 Intrafragment Coordinates---
	 - Coordinate -           - BOHR/RAD -       - ANG/DEG -
	 R(1,2)           =         4.455024	       2.357497
	 R(1,3)           =         4.455024	       2.357497
	 R(2,3)           =         4.542581	       2.403831
	 B(1,2,3)         =         1.035813	      59.347702
	 B(1,3,2)         =         1.035813	      59.347702
	 B(2,1,3)         =         1.069967	      61.304595

	Current energy   :     -4924.3949616932

	Energy change for the previous step:
		Projected    :        -0.0016317186
		Actual       :        -0.0026771397
	Energy ratio indicates good step: Trust radius increased to 1.000e+00.


	Performing BFGS update.
	Previous computed or guess Hessian on step 1.
	Steps to be used in Hessian update: 1
	Taking RFO optimization step.
	Going to follow RFO solution 1.
	Using RFO vector 1.
	Norm of target step-size    0.25484
	Projected energy change by RFO approximation:        -0.0059209199

	Back-transformation to cartesian coordinates...
	Successfully converged to displaced geometry.

	--- Internal Coordinate Step in ANG or DEG, aJ/ANG or AJ/DEG ---
	 ---------------------------------------------------------------------------
	   Coordinate                Previous        Force       Change         New 
	   ----------                --------       ------       ------       ------
	    1 R(1,2)          =      2.357497     0.027190     0.035927     2.393424
	    2 R(1,3)          =      2.357497     0.027190     0.035927     2.393424
	    3 R(2,3)          =      2.403831     0.105603     0.121959     2.525790
	    4 B(1,2,3)        =     59.347702    -0.000094    -1.194641    58.153062
	    5 B(1,3,2)        =     59.347702    -0.000094    -1.194641    58.153062
	    6 B(2,1,3)        =     61.304595     0.000188     2.389282    63.693877
	 ---------------------------------------------------------------------------
	Successfully symmetrized geometry.

  ==> Convergence Check <==

  Measures of convergence in internal coordinates in au.
  Criteria marked as inactive (o), active & met (*), and active & unmet ( ).
  ---------------------------------------------------------------------------------------------
   Step     Total Energy     Delta E     MAX Force     RMS Force      MAX Disp      RMS Disp   
  ---------------------------------------------------------------------------------------------
    Convergence Criteria    1.00e-06 *    3.00e-04 *             o    1.20e-03 *             o
  ---------------------------------------------------------------------------------------------
      2   -4924.39496169   -2.68e-03      1.28e-02      5.70e-03 o    2.30e-01      1.04e-01 o  ~
  ---------------------------------------------------------------------------------------------

	Writing optimization data to binary file.
	Structure for next step:
	Cartesian Geometry (in Angstrom)
	   CU     0.0000000000   0.0000000000   1.3554132864
	   CU     1.2628948333   0.0000000000  -0.6777066432
	   CU    -1.2628948333  -0.0000000000  -0.6777066432
			--------------------------
			 OPTKING Finished Execution 
			--------------------------

    Structure for next step:
    Molecular point group: c2v
    Full point group: C2v

    Geometry (in Angstrom), charge = 0, multiplicity = 2:

    CU           0.000000000000     0.000000000000     1.355413291768
    CU           1.262894838233     0.000000000000    -0.677706645884
    CU          -1.262894838233    -0.000000000000    -0.677706645884


Scratch directory: /tmp/
gradient() will perform analytic gradient computation.

*** tstart() called on compute322.bc4.acrc.priv
*** at Fri Nov  5 13:31:30 2021

   => Loading Basis Set <=

    Name: DEF2-TZVPPD
    Role: ORBITAL
    Keyword: BASIS
    atoms 1-3 entry CU         line  1290 file /mnt/storage/home/zw18965/.conda/envs/p4env/share/psi4/basis/def2-tzvppd.gbs 


         ---------------------------------------------------------
                                   SCF
               by Justin Turney, Rob Parrish, Andy Simmonett
                          and Daniel G. A. Smith
                              UKS Reference
                       28 Threads, 137329 MiB Core
         ---------------------------------------------------------

  ==> Geometry <==

    Molecular point group: c2v
    Full point group: C2v

    Geometry (in Angstrom), charge = 0, multiplicity = 2:

       Center              X                  Y                   Z               Mass       
    ------------   -----------------  -----------------  -----------------  -----------------
         CU           0.000000000000     0.000000000000     1.355413291768    62.929597720000
         CU           1.262894838233     0.000000000000    -0.677706645884    62.929597720000
         CU          -1.262894838233    -0.000000000000    -0.677706645884    62.929597720000

  Running in c2v symmetry.

  Rotational constants: A =      0.09721  B =      0.08398  C =      0.04506 [cm^-1]
  Rotational constants: A =   2914.25469  B =   2517.66459  C =   1350.74096 [MHz]
  Nuclear repulsion =  548.081520581372047

  Charge       = 0
  Multiplicity = 2
  Electrons    = 87
  Nalpha       = 44
  Nbeta        = 43

  ==> Algorithm <==

  SCF Algorithm Type is DF.
  DIIS enabled.
  MOM enabled.
  Fractional occupation disabled.
  Guess Type is READ.
  Energy threshold   = 1.00e-08
  Density threshold  = 1.00e-08
  Integral threshold = 1.00e-12

  ==> Primary Basis <==

  Basis Set: DEF2-TZVPPD
    Blend: DEF2-TZVPPD
    Number of shells: 57
    Number of basis functions: 201
    Number of Cartesian functions: 249
    Spherical Harmonics?: true
    Max angular momentum: 4

  ==> DFT Potential <==

   => Composite Functional: GAM <= 

   GAM GGA Minessota Exchange-Correlation Functional

    H.S. Yu, et al., Phys. Chem. Chem. Phys. 17, 12146, 2015


    Deriv               =              1
    GGA                 =           TRUE
    Meta                =          FALSE

    Exchange Hybrid     =          FALSE
    MP2 Hybrid          =          FALSE

   => Exchange Functionals <=

    1.0000     XC_GGA_X_GAM

   => Correlation Functionals <=

    1.0000     XC_GGA_C_GAM

   => LibXC Density Thresholds  <==

    XC_GGA_C_GAM:  1.00E-14 
    XC_GGA_X_GAM:  1.00E-14 

   => Molecular Quadrature <=

    Radial Scheme          =       TREUTLER
    Pruning Scheme         =           NONE
    Nuclear Scheme         =       TREUTLER

    BS radius alpha        =              1
    Pruning alpha          =              1
    Radial Points          =             75
    Spherical Points       =            302
    Total Points           =          65301
    Total Blocks           =            583
    Max Points             =            256
    Max Functions          =            191
    Weights Tolerance      =       1.00E-15

   => Loading Basis Set <=

    Name: (DEF2-TZVPPD AUX)
    Role: JKFIT
    Keyword: DF_BASIS_SCF
    atoms 1-3 entry CU         line  2356 file /mnt/storage/home/zw18965/.conda/envs/p4env/share/psi4/basis/def2-universal-jkfit.gbs 

   => Loading Basis Set <=

    Name: DEF2-TZVPPD
    Role: ORBITAL
    Keyword: BASIS
    atoms 1-3 entry CU         line  1290 file /mnt/storage/home/zw18965/.conda/envs/p4env/share/psi4/basis/def2-tzvppd.gbs 

  Reading orbitals from file /tmp/Cu03N0_D3H.default.15128.180.npy, no projection.

  ==> Integral Setup <==

  DFHelper Memory: AOs need 0.244 GiB; user supplied 100.352 GiB. Using in-core AOs.

  ==> MemDFJK: Density-Fitted J/K Matrices <==

    J tasked:                   Yes
    K tasked:                    No
    wK tasked:                   No
    OpenMP threads:              28
    Memory [MiB]:            102760
    Algorithm:                 Core
    Schwarz Cutoff:           1E-12
    Mask sparsity (%):       8.2325
    Fitting Condition:        1E-10

   => Auxiliary Basis Set <=

  Basis Set: (DEF2-TZVPPD AUX)
    Blend: DEF2-UNIVERSAL-JKFIT
    Number of shells: 174
    Number of basis functions: 792
    Number of Cartesian functions: 1131
    Spherical Harmonics?: true
    Max angular momentum: 6

  Cached 100.0% of DFT collocation blocks in 0.231 [GiB].

  Minimum eigenvalue in the overlap matrix is 6.8028973465E-04.
  Reciprocal condition number of the overlap matrix is 1.3217078174E-04.
    Using symmetric orthogonalization.

  ==> Pre-Iterations <==

  SCF Guess: Orbitals guess was supplied from a previous computation.

   -------------------------------------------------------
    Irrep   Nso     Nmo     Nalpha   Nbeta   Ndocc  Nsocc
   -------------------------------------------------------
     A1        70      70      18      18      18       0
     A2        32      32       5       5       5       0
     B1        59      59      14      13      13       1
     B2        40      40       7       7       7       0
   -------------------------------------------------------
    Total     201     201      44      43      43       1
   -------------------------------------------------------

  ==> Iterations <==

                           Total Energy        Delta E     RMS |[F,P]|

   @DF-UKS iter   0: -4924.41907087840082   -4.92442e+03   2.57485e-03 
   @DF-UKS iter   1: -4924.39724448617926    2.18264e-02   8.81348e-05 DIIS
   @DF-UKS iter   2: -4924.39703300739347    2.11479e-04   3.44909e-04 DIIS
   @DF-UKS iter   3: -4924.39726620096917   -2.33194e-04   2.55947e-05 DIIS
   @DF-UKS iter   4: -4924.39726098790925    5.21306e-06   5.22680e-05 DIIS
   @DF-UKS iter   5: -4924.39727147612575   -1.04882e-05   1.30249e-05 DIIS
   @DF-UKS iter   6: -4924.39727213037077   -6.54245e-07   2.74020e-06 DIIS
   @DF-UKS iter   7: -4924.39727219548422   -6.51135e-08   1.22329e-06 DIIS
   @DF-UKS iter   8: -4924.39727220912937   -1.36451e-08   5.23379e-07 DIIS
   @DF-UKS iter   9: -4924.39727221088651   -1.75714e-09   3.50575e-07 DIIS
   @DF-UKS iter  10: -4924.39727221142857   -5.42059e-10   8.05509e-08 DIIS/MOM
   @DF-UKS iter  11: -4924.39727221148132   -5.27507e-11   4.63487e-08 DIIS/MOM
   @DF-UKS iter  12: -4924.39727221149769   -1.63709e-11   1.14048e-08 DIIS/MOM
   @DF-UKS iter  13: -4924.39727221149769    0.00000e+00   4.26206e-09 DIIS/MOM
  Energy and wave function converged.


  ==> Post-Iterations <==

   Electrons on quadrature grid:
      Nalpha   =   43.9999958587 ; deviation = -4.141e-06
      Nbeta    =   42.9999960273 ; deviation = -3.973e-06
      Ntotal   =   86.9999918860 ; deviation = -8.114e-06 

   @Spin Contamination Metric:   9.616978887E-03
   @S^2 Expected:                7.500000000E-01
   @S^2 Observed:                7.596169789E-01
   @S   Expected:                5.000000000E-01
   @S   Observed:                5.000000000E-01

    Orbital Energies [Eh]
    ---------------------

    Alpha Occupied:                                                       

       1A1  -320.895134     1B1  -320.883196     2A1  -320.883182  
       3A1   -38.366708     2B1   -38.355766     4A1   -38.355727  
       5A1   -33.765541     3B1   -33.764715     1B2   -33.764249  
       4B1   -33.754984     6A1   -33.754980     5B1   -33.754382  
       7A1   -33.754378     1A2   -33.752375     2B2   -33.752374  
       8A1    -4.137190     9A1    -4.123958     6B1    -4.123854  
      10A1    -2.676055     7B1    -2.673035     3B2    -2.671956  
      11A1    -2.662942     8B1    -2.662494    12A1    -2.661065  
       9B1    -2.660279     4B2    -2.657279     2A2    -2.657177  
      13A1    -0.264997    10B1    -0.240342     5B2    -0.233590  
      14A1    -0.231828    15A1    -0.225342     3A2    -0.223573  
      16A1    -0.214985     6B2    -0.212704    17A1    -0.205359  
       7B2    -0.202914    11B1    -0.202876    18A1    -0.202867  
       4A2    -0.200871    12B1    -0.199606     5A2    -0.198317  
      13B1    -0.194169    14B1    -0.130525  

    Alpha Virtual:                                                        

      19A1    -0.127532     8B2    -0.064477    20A1    -0.039196  
      15B1    -0.022142    21A1    -0.019157     6A2     0.018878  
       9B2     0.021082    16B1     0.040421    22A1     0.042463  
      17B1     0.073760    23A1     0.089594    24A1     0.093077  
      10B2     0.098878    18B1     0.113060    25A1     0.117516  
       7A2     0.140231    11B2     0.143780    26A1     0.154911  
      19B1     0.171397    12B2     0.177521    27A1     0.179703  
       8A2     0.179918    20B1     0.182854    21B1     0.183060  
      28A1     0.191866    13B2     0.202771    29A1     0.254142  
      22B1     0.255140     9A2     0.279654    30A1     0.289613  
      23B1     0.306549    31A1     0.309553    10A2     0.310201  
      14B2     0.316384    24B1     0.403984    25B1     0.431428  
      32A1     0.441549    33A1     0.593218    15B2     0.601430  
      26B1     0.630836    34A1     0.641191    11A2     0.677601  
      16B2     0.682029    27B1     0.730375    35A1     0.731645  
      36A1     0.742448    17B2     0.751160    12A2     0.788441  
      18B2     0.805066    28B1     0.845970    37A1     0.858512  
      38A1     0.871917    29B1     0.881649    13A2     0.957835  
      30B1     0.958495    39A1     0.979048    14A2     1.007607  
      19B2     1.022133    31B1     1.149226    40A1     1.187672  
      32B1     1.207357    20B2     2.866326    41A1     2.875519  
      42A1     2.919962    33B1     2.926097    43A1     2.952968  
      15A2     2.969294    21B2     2.972545    44A1     3.032841  
      34B1     3.061945    35B1     3.143445    36B1     3.292273  
      45A1     3.296550    46A1     3.319275    22B2     3.334995  
      16A2     3.335831    23B2     3.351561    37B1     3.354176  
      47A1     3.356335    24B2     3.357037    25B2     3.361877  
      38B1     3.362234    17A2     3.364013    48A1     3.365534  
      39B1     3.367259    18A2     3.367953    26B2     3.368733  
      19A2     3.369876    49A1     3.371540    40B1     3.373629  
      41B1     3.384869    50A1     3.397913    42B1     3.442746  
      51A1     3.460583    27B2     3.558347    52A1     3.562986  
      20A2     3.567768    28B2     3.582228    43B1     3.623813  
      53A1     3.625169    21A2     3.645526    29B2     3.693013  
      22A2     3.694943    54A1     3.743920    55A1     3.792511  
      44B1     3.817081    45B1     3.885058    46B1     4.056225  
      56A1     4.058248    47B1    12.747726    57A1    12.747888  
      30B2    12.748446    23A2    12.749299    31B2    12.749602  
      58A1    12.749725    48B1    12.750513    24A2    12.751881  
      59A1    12.752074    60A1    12.761026    49B1    12.761311  
      50B1    12.762377    61A1    12.763026    25A2    12.763177  
      32B2    12.763211    26A2    12.764011    33B2    12.764195  
      51B1    12.764714    62A1    12.764792    27A2    12.765436  
      34B2    12.765516    63A1    12.765640    52B1    12.765685  
      35B2    12.766829    28A2    12.766836    64A1    12.767159  
      53B1    12.767197    36B2    12.882692    54B1    12.883762  
      29A2    12.884871    65A1    12.885057    37B2    12.885142  
      66A1    12.890557    55B1    12.892942    38B2    12.894759  
      30A2    12.895359    56B1    12.895664    67A1    12.896093  
      39B2    12.896493    31A2    12.896905    57B1    12.898195  
      68A1    12.900492    32A2    12.901966    40B2    12.904050  
      69A1    12.904448    58B1    12.935586    59B1    12.962372  
      70A1    12.964833  

    Beta Occupied:                                                        

       1A1  -320.895071     1B1  -320.882648     2A1  -320.882634  
       3A1   -38.366453     2B1   -38.356384     4A1   -38.356346  
       5A1   -33.765236     3B1   -33.764407     1B2   -33.764161  
       4B1   -33.755217     6A1   -33.755214     5B1   -33.754654  
       7A1   -33.754648     1A2   -33.752859     2B2   -33.752858  
       8A1    -4.136748     9A1    -4.124890     6B1    -4.124785  
      10A1    -2.675411     7B1    -2.672436     3B2    -2.671844  
      11A1    -2.663616     8B1    -2.663045    12A1    -2.661619  
       9B1    -2.660966     4B2    -2.658162     2A2    -2.658060  
      13A1    -0.260849    10B1    -0.238002     5B2    -0.232534  
      14A1    -0.228694     3A2    -0.222204    15A1    -0.220460  
      16A1    -0.212837     6B2    -0.210074    17A1    -0.203465  
       7B2    -0.201080    11B1    -0.199947    18A1    -0.199446  
       4A2    -0.198893    12B1    -0.196172     5A2    -0.194989  
      13B1    -0.190724  

    Beta Virtual:                                                         

      14B1    -0.125332    19A1    -0.124182    20A1    -0.071407  
       8B2    -0.066230    15B1    -0.036673    21A1    -0.025512  
       6A2    -0.008303     9B2     0.012318    16B1     0.013664  
      22A1     0.042098    17B1     0.057924    23A1     0.078885  
      10B2     0.088812    24A1     0.105062    18B1     0.113614  
      25A1     0.117052    26A1     0.142509    11B2     0.150061  
      19B1     0.157702     7A2     0.159996     8A2     0.163028  
      12B2     0.164561    27A1     0.168588    20B1     0.181798  
      13B2     0.190372    28A1     0.194730    21B1     0.204246  
      22B1     0.224263    29A1     0.225601     9A2     0.243324  
      30A1     0.270092    10A2     0.277281    23B1     0.283399  
      31A1     0.297342    14B2     0.299753    24B1     0.380746  
      25B1     0.431283    32A1     0.437555    33A1     0.588665  
      15B2     0.608557    26B1     0.633524    34A1     0.644946  
      16B2     0.683671    11A2     0.685573    35A1     0.738008  
      36A1     0.745046    27B1     0.746235    17B2     0.754254  
      12A2     0.787698    18B2     0.813255    28B1     0.850026  
      37A1     0.873516    38A1     0.877200    29B1     0.886029  
      13A2     0.965331    30B1     0.974421    39A1     0.990000  
      14A2     1.019637    19B2     1.028065    31B1     1.166996  
      40A1     1.196604    32B1     1.223334    20B2     2.870285  
      41A1     2.877219    42A1     2.928404    33B1     2.931346  
      43A1     2.958644    21B2     2.974466    15A2     2.975315  
      44A1     3.036774    34B1     3.067794    35B1     3.149972  
      36B1     3.299163    45A1     3.299496    46A1     3.322819  
      22B2     3.336432    16A2     3.337199    23B2     3.353622  
      37B1     3.355124    47A1     3.360145    24B2     3.362013  
      25B2     3.363623    38B1     3.365539    17A2     3.365993  
      48A1     3.368611    39B1     3.371049    18A2     3.371673  
      26B2     3.371946    19A2     3.374287    49A1     3.374926  
      40B1     3.376462    41B1     3.388246    50A1     3.402462  
      42B1     3.446604    51A1     3.463138    27B2     3.562078  
      52A1     3.565602    20A2     3.568807    28B2     3.584180  
      53A1     3.628088    43B1     3.628521    21A2     3.649131  
      29B2     3.695250    22A2     3.701066    54A1     3.748078  
      55A1     3.795916    44B1     3.822466    45B1     3.892053  
      56A1     4.061635    46B1     4.061955    57A1    12.748033  
      47B1    12.748386    30B2    12.748512    23A2    12.749757  
      31B2    12.749968    58A1    12.750223    48B1    12.750973  
      24A2    12.751782    59A1    12.752026    60A1    12.759852  
      49B1    12.760150    50B1    12.761209    25A2    12.761662  
      32B2    12.761738    61A1    12.761991    26A2    12.762515  
      33B2    12.762723    51B1    12.763081    62A1    12.763217  
      27A2    12.763982    34B2    12.764008    63A1    12.764194  
      52B1    12.764348    35B2    12.765231    28A2    12.765242  
      64A1    12.765568    53B1    12.765656    36B2    12.883000  
      54B1    12.884120    37B2    12.885460    29A2    12.885473  
      65A1    12.885716    66A1    12.890843    55B1    12.892930  
      38B2    12.894609    30A2    12.895223    39B2    12.895975  
      67A1    12.895986    56B1    12.896008    31A2    12.896909  
      57B1    12.897919    68A1    12.900838    32A2    12.901402  
      69A1    12.903815    40B2    12.903978    58B1    12.935109  
      59B1    12.962826    70A1    12.964701  

    Final Occupation by Irrep:
             A1    A2    B1    B2 
    DOCC [    18,    5,   13,    7 ]
    SOCC [     0,    0,    1,    0 ]

  @DF-UKS Final Energy: -4924.39727221149769

   => Energetics <=

    Nuclear Repulsion Energy =            548.0815205813720468
    One-Electron Energy =               -7968.4823858302297594
    Two-Electron Energy =                2701.1357033173953823
    DFT Exchange-Correlation Energy =    -205.1321102800349934
    Empirical Dispersion Energy =           0.0000000000000000
    VV10 Nonlocal Energy =                  0.0000000000000000
    Total Energy =                      -4924.3972722114967837

  UHF NO Occupations:
  HONO-2 :   17 A1 1.9996126
  HONO-1 :   18 A1 1.9974536
  HONO-0 :   14 B1 1.0000000
  LUNO+0 :   19 A1 0.0025464
  LUNO+1 :   20 A1 0.0003874
  LUNO+2 :   15 B1 0.0003834
  LUNO+3 :    6 A2 0.0003503


Computation Completed


Properties will be evaluated at   0.000000,   0.000000,   0.000000 [a0]

Properties computed using the SCF density matrix

  Nuclear Dipole Moment: [e a0]
     X:    -0.0000      Y:    -0.0000      Z:     0.0000

  Electronic Dipole Moment: [e a0]
     X:     0.0000      Y:     0.0000      Z:     0.3549

  Dipole Moment: [e a0]
     X:    -0.0000      Y:    -0.0000      Z:     0.3549     Total:     0.3549

  Dipole Moment: [D]
     X:    -0.0000      Y:    -0.0000      Z:     0.9019     Total:     0.9019


*** tstop() called on compute322.bc4.acrc.priv at Fri Nov  5 13:31:42 2021
Module time:
	user time   =     310.79 seconds =       5.18 minutes
	system time =       9.33 seconds =       0.16 minutes
	total time  =         12 seconds =       0.20 minutes
Total time:
	user time   =    1537.55 seconds =      25.63 minutes
	system time =      56.14 seconds =       0.94 minutes
	total time  =         86 seconds =       1.43 minutes

*** tstart() called on compute322.bc4.acrc.priv
*** at Fri Nov  5 13:31:42 2021


         ------------------------------------------------------------
                                   SCF GRAD                          
                          Rob Parrish, Justin Turney,                
                       Andy Simmonett, and Alex Sokolov              
         ------------------------------------------------------------

  ==> Geometry <==

    Molecular point group: c2v
    Full point group: C2v

    Geometry (in Angstrom), charge = 0, multiplicity = 2:

       Center              X                  Y                   Z               Mass       
    ------------   -----------------  -----------------  -----------------  -----------------
         CU           0.000000000000     0.000000000000     1.355413291768    62.929597720000
         CU           1.262894838233     0.000000000000    -0.677706645884    62.929597720000
         CU          -1.262894838233    -0.000000000000    -0.677706645884    62.929597720000

  Nuclear repulsion =  548.081520581372047

  ==> Basis Set <==

  Basis Set: DEF2-TZVPPD
    Blend: DEF2-TZVPPD
    Number of shells: 57
    Number of basis functions: 201
    Number of Cartesian functions: 249
    Spherical Harmonics?: true
    Max angular momentum: 4

  ==> DFJKGrad: Density-Fitted SCF Gradients <==

    Gradient:                    1
    J tasked:                  Yes
    K tasked:                   No
    wK tasked:                  No
    OpenMP threads:             28
    Integrals threads:          28
    Memory [MiB]:           102996
    Schwarz Cutoff:          1E-12
    Fitting Condition:       1E-10

   => Auxiliary Basis Set <=

  Basis Set: (DEF2-TZVPPD AUX)
    Blend: DEF2-UNIVERSAL-JKFIT
    Number of shells: 174
    Number of basis functions: 792
    Number of Cartesian functions: 1131
    Spherical Harmonics?: true
    Max angular momentum: 6

  ==> DFT Potential <==

   => Composite Functional: GAM <= 

   GAM GGA Minessota Exchange-Correlation Functional

    H.S. Yu, et al., Phys. Chem. Chem. Phys. 17, 12146, 2015


    Deriv               =              1
    GGA                 =           TRUE
    Meta                =          FALSE

    Exchange Hybrid     =          FALSE
    MP2 Hybrid          =          FALSE

   => Exchange Functionals <=

    1.0000     XC_GGA_X_GAM

   => Correlation Functionals <=

    1.0000     XC_GGA_C_GAM

   => LibXC Density Thresholds  <==

    XC_GGA_C_GAM:  1.00E-14 
    XC_GGA_X_GAM:  1.00E-14 

   => Molecular Quadrature <=

    Radial Scheme          =       TREUTLER
    Pruning Scheme         =           NONE
    Nuclear Scheme         =       TREUTLER

    BS radius alpha        =              1
    Pruning alpha          =              1
    Radial Points          =             75
    Spherical Points       =            302
    Total Points           =          65301
    Total Blocks           =            583
    Max Points             =            256
    Max Functions          =            191
    Weights Tolerance      =       1.00E-15


  -Total Gradient:
     Atom            X                  Y                   Z
    ------   -----------------  -----------------  -----------------
       1        0.000000000000     0.000000000000     0.000689362184
[...]
    Number of Cartesian functions: 249
    Spherical Harmonics?: true
    Max angular momentum: 4

  ==> DFJKGrad: Density-Fitted SCF Gradients <==

    Gradient:                    1
    J tasked:                  Yes
    K tasked:                   No
    wK tasked:                  No
    OpenMP threads:             28
    Integrals threads:          28
    Memory [MiB]:           102996
    Schwarz Cutoff:          1E-12
    Fitting Condition:       1E-10

   => Auxiliary Basis Set <=

  Basis Set: (DEF2-TZVPPD AUX)
    Blend: DEF2-UNIVERSAL-JKFIT
    Number of shells: 174
    Number of basis functions: 792
    Number of Cartesian functions: 1131
    Spherical Harmonics?: true
    Max angular momentum: 6

  ==> DFT Potential <==

   => Composite Functional: GAM <= 

   GAM GGA Minessota Exchange-Correlation Functional

    H.S. Yu, et al., Phys. Chem. Chem. Phys. 17, 12146, 2015


    Deriv               =              1
    GGA                 =           TRUE
    Meta                =          FALSE

    Exchange Hybrid     =          FALSE
    MP2 Hybrid          =          FALSE

   => Exchange Functionals <=

    1.0000     XC_GGA_X_GAM

   => Correlation Functionals <=

    1.0000     XC_GGA_C_GAM

   => LibXC Density Thresholds  <==

    XC_GGA_C_GAM:  1.00E-14 
    XC_GGA_X_GAM:  1.00E-14 

   => Molecular Quadrature <=

    Radial Scheme          =       TREUTLER
    Pruning Scheme         =           NONE
    Nuclear Scheme         =       TREUTLER

    BS radius alpha        =              1
    Pruning alpha          =              1
    Radial Points          =             75
    Spherical Points       =            302
    Total Points           =          65285
    Total Blocks           =            592
    Max Points             =            255
    Max Functions          =            191
    Weights Tolerance      =       1.00E-15


  -Total Gradient:
     Atom            X                  Y                   Z
    ------   -----------------  -----------------  -----------------
       1        0.000000000000    -0.000000000000    -0.000015137323
       2        0.000027373487     0.000000000000    -0.000063510252
       3       -0.000027373487    -0.000000000000    -0.000063510252


*** tstop() called on compute322.bc4.acrc.priv at Fri Nov  5 13:35:56 2021
Module time:
	user time   =     100.35 seconds =       1.67 minutes
	system time =       2.67 seconds =       0.04 minutes
	total time  =         17 seconds =       0.28 minutes
Total time:
	user time   =    4979.68 seconds =      82.99 minutes
	system time =     164.10 seconds =       2.73 minutes
	total time  =        340 seconds =       5.67 minutes

  //>>>>>>>>>>>>>>>>>>>>>>>>>>>>>>>>>>>//
  //    Loading displacement 2 of 6    //
  //<<<<<<<<<<<<<<<<<<<<<<<<<<<<<<<<<<<//

Scratch directory: /tmp/
gradient() will perform analytic gradient computation.

*** tstart() called on compute322.bc4.acrc.priv
*** at Fri Nov  5 13:35:56 2021

   => Loading Basis Set <=

    Name: DEF2-TZVPPD
    Role: ORBITAL
    Keyword: BASIS
    atoms 1-3 entry CU         line  1290 file /mnt/storage/home/zw18965/.conda/envs/p4env/share/psi4/basis/def2-tzvppd.gbs 


         ---------------------------------------------------------
                                   SCF
               by Justin Turney, Rob Parrish, Andy Simmonett
                          and Daniel G. A. Smith
                              UKS Reference
                       28 Threads, 137329 MiB Core
         ---------------------------------------------------------

  ==> Geometry <==

    Molecular point group: c2v
    Full point group: C2v

    Geometry (in Angstrom), charge = 0, multiplicity = 2:

       Center              X                  Y                   Z               Mass       
    ------------   -----------------  -----------------  -----------------  -----------------
         CU           0.000000000000     0.000000000000     1.316009598742    62.929597720000
         CU           1.345797896078     0.000000000000    -0.658004799371    62.929597720000
         CU          -1.345797896078    -0.000000000000    -0.658004799371    62.929597720000

  Running in c2v symmetry.

  Rotational constants: A =      0.10312  B =      0.07395  C =      0.04307 [cm^-1]
  Rotational constants: A =   3091.38340  B =   2217.03504  C =   1291.10118 [MHz]
  Nuclear repulsion =  537.897160163780200

  Charge       = 0
  Multiplicity = 2
  Electrons    = 87
  Nalpha       = 44
  Nbeta        = 43

  ==> Algorithm <==

  SCF Algorithm Type is DF.
  DIIS enabled.
  MOM enabled.
  Fractional occupation disabled.
  Guess Type is SAD.
  Energy threshold   = 1.00e-08
  Density threshold  = 1.00e-08
  Integral threshold = 1.00e-12

  ==> Primary Basis <==

  Basis Set: DEF2-TZVPPD
    Blend: DEF2-TZVPPD
    Number of shells: 57
    Number of basis functions: 201
    Number of Cartesian functions: 249
    Spherical Harmonics?: true
    Max angular momentum: 4

  ==> DFT Potential <==

   => Composite Functional: GAM <= 

   GAM GGA Minessota Exchange-Correlation Functional

    H.S. Yu, et al., Phys. Chem. Chem. Phys. 17, 12146, 2015


    Deriv               =              1
    GGA                 =           TRUE
    Meta                =          FALSE

    Exchange Hybrid     =          FALSE
    MP2 Hybrid          =          FALSE

   => Exchange Functionals <=

    1.0000     XC_GGA_X_GAM

   => Correlation Functionals <=

    1.0000     XC_GGA_C_GAM

   => LibXC Density Thresholds  <==

    XC_GGA_C_GAM:  1.00E-14 
    XC_GGA_X_GAM:  1.00E-14 

   => Molecular Quadrature <=

    Radial Scheme          =       TREUTLER
    Pruning Scheme         =           NONE
    Nuclear Scheme         =       TREUTLER

    BS radius alpha        =              1
    Pruning alpha          =              1
    Radial Points          =             75
    Spherical Points       =            302
    Total Points           =          65285
    Total Blocks           =            592
    Max Points             =            255
    Max Functions          =            191
    Weights Tolerance      =       1.00E-15

   => Loading Basis Set <=

    Name: (DEF2-TZVPPD AUX)
    Role: JKFIT
    Keyword: DF_BASIS_SCF
    atoms 1-3 entry CU         line  2356 file /mnt/storage/home/zw18965/.conda/envs/p4env/share/psi4/basis/def2-universal-jkfit.gbs 

  ==> Integral Setup <==

  DFHelper Memory: AOs need 0.241 GiB; user supplied 100.354 GiB. Using in-core AOs.

  ==> MemDFJK: Density-Fitted J/K Matrices <==

    J tasked:                   Yes
    K tasked:                    No
    wK tasked:                   No
    OpenMP threads:              28
    Memory [MiB]:            102762
    Algorithm:                 Core
    Schwarz Cutoff:           1E-12
    Mask sparsity (%):       9.1681
    Fitting Condition:        1E-10

   => Auxiliary Basis Set <=

  Basis Set: (DEF2-TZVPPD AUX)
    Blend: DEF2-UNIVERSAL-JKFIT
    Number of shells: 174
    Number of basis functions: 792
    Number of Cartesian functions: 1131
    Spherical Harmonics?: true
    Max angular momentum: 6

  Cached 100.0% of DFT collocation blocks in 0.229 [GiB].

  Minimum eigenvalue in the overlap matrix is 6.7076683954E-04.
  Reciprocal condition number of the overlap matrix is 1.3061982819E-04.
    Using symmetric orthogonalization.

  ==> Pre-Iterations <==

  SCF Guess: Superposition of Atomic Densities via on-the-fly atomic UHF (no occupation information).

   -------------------------
    Irrep   Nso     Nmo    
   -------------------------
     A1        70      70 
     A2        32      32 
     B1        59      59 
     B2        40      40 
   -------------------------
    Total     201     201
   -------------------------

  ==> Iterations <==

                           Total Energy        Delta E     RMS |[F,P]|

   @DF-UKS iter SAD: -4917.72162142214711   -4.91772e+03   0.00000e+00 
    Occupation by irrep:
             A1    A2    B1    B2 
    DOCC [    19,    3,   13,    7 ]
    SOCC [     0,    1,    1,    1 ]

   @DF-UKS iter   1: -4914.00725942149074    3.71436e+00   7.51972e-02 DIIS
    Occupation by irrep:
             A1    A2    B1    B2 
    DOCC [    18,    5,   13,    7 ]
    SOCC [     0,    0,    1,    0 ]

   @DF-UKS iter   2: -4777.62398091465639    1.36383e+02   1.63093e-01 DIIS
    Occupation by irrep:
             A1    A2    B1    B2 
    DOCC [    18,    4,   14,    7 ]
    SOCC [     1,    0,    0,    0 ]

   @DF-UKS iter   3: -4921.93326360103310   -1.44309e+02   2.76536e-02 DIIS
    Occupation by irrep:
             A1    A2    B1    B2 
    DOCC [    19,    4,   13,    7 ]
    SOCC [     0,    0,    0,    1 ]

   @DF-UKS iter   4: -4881.69902649752476    4.02342e+01   6.98574e-02 DIIS
    Occupation by irrep:
             A1    A2    B1    B2 
    DOCC [    19,    4,   13,    7 ]
    SOCC [     0,    1,    0,    0 ]

   @DF-UKS iter   5: -4852.41832139208509    2.92807e+01   1.08666e-01 DIIS
    Occupation by irrep:
             A1    A2    B1    B2 
    DOCC [    18,    5,   13,    7 ]
    SOCC [     1,    0,    0,    0 ]

   @DF-UKS iter   6: -4919.71593570637924   -6.72976e+01   4.02198e-02 DIIS
    Occupation by irrep:
             A1    A2    B1    B2 
    DOCC [    18,    5,   13,    7 ]
    SOCC [     0,    0,    1,    0 ]

   @DF-UKS iter   7: -4923.53592766208749   -3.81999e+00   1.71329e-02 DIIS
   @DF-UKS iter   8: -4924.24834501629175   -7.12417e-01   8.13560e-03 DIIS
   @DF-UKS iter   9: -4924.37003138294585   -1.21686e-01   2.21615e-03 DIIS
   @DF-UKS iter  10: -4924.37882347245068   -8.79209e-03   2.22137e-03 DIIS/MOM
   @DF-UKS iter  11: -4924.39408744375578   -1.52640e-02   1.09630e-03 DIIS/MOM
   @DF-UKS iter  12: -4924.22529089803447    1.68797e-01   5.33436e-03 DIIS/MOM
   @DF-UKS iter  13: -4924.21852284960642    6.76805e-03   5.53934e-03 DIIS/MOM
   @DF-UKS iter  14: -4924.21500129898777    3.52155e-03   5.66651e-03 DIIS/MOM
   @DF-UKS iter  15: -4924.22024620403681   -5.24491e-03   5.50483e-03 DIIS/MOM
   @DF-UKS iter  16: -4924.22122696772749   -9.80764e-04   5.47169e-03 DIIS/MOM
   @DF-UKS iter  17: -4924.22470943883309   -3.48247e-03   5.29796e-03 DIIS/MOM
   @DF-UKS iter  18: -4924.24127721667810   -1.65678e-02   4.75347e-03 DIIS/MOM
   @DF-UKS iter  19: -4924.28122427913149   -3.99471e-02   2.76258e-03 DIIS/MOM
   @DF-UKS iter  20: -4924.28776649640895   -6.54222e-03   2.29017e-03 DIIS/MOM
   @DF-UKS iter  21: -4921.27462868522798    3.01314e+00   9.31275e-03 DIIS/MOM
   @DF-UKS iter  22: -4921.31568611251078   -4.10574e-02   8.46818e-03 DIIS/MOM
   @DF-UKS iter  23: -4921.30802800154288    7.65811e-03   8.62650e-03 DIIS/MOM
   @DF-UKS iter  24: -4921.30943106649647   -1.40306e-03   8.59792e-03 DIIS/MOM
   @DF-UKS iter  25: -4921.30916531482035    2.65752e-04   8.60334e-03 DIIS/MOM
   @DF-UKS iter  26: -4921.30921516678245   -4.98520e-05   8.60232e-03 DIIS/MOM
   @DF-UKS iter  27: -4921.30920579869417    9.36809e-06   8.60251e-03 DIIS/MOM
   @DF-UKS iter  28: -4921.30920755847819   -1.75978e-06   8.60248e-03 DIIS/MOM
   @DF-UKS iter  29: -4921.30920722789142    3.30587e-07   8.60249e-03 DIIS/MOM
   @DF-UKS iter  30: -4921.30920728997989   -6.20885e-08   8.60248e-03 DIIS/MOM
   @DF-UKS iter  31: -4921.30920727832654    1.16534e-08   8.60248e-03 DIIS/MOM
   @DF-UKS iter  32: -4921.30920728051478   -2.18824e-09   8.60248e-03 DIIS/MOM
   @DF-UKS iter  33: -4921.30920728009733    4.17458e-10   8.60248e-03 DIIS/MOM
   @DF-UKS iter  34: -4921.30920728017827   -8.09450e-11   8.60248e-03 DIIS/MOM
   @DF-UKS iter  35: -4921.30920728016190    1.63709e-11   8.60248e-03 DIIS/MOM
   @DF-UKS iter  36: -4921.30920728016463   -2.72848e-12   8.60248e-03 DIIS/MOM
   @DF-UKS iter  37: -4921.30920728017099   -6.36646e-12   8.60248e-03 DIIS/MOM
   @DF-UKS iter  38: -4921.30920728016554    5.45697e-12   8.60248e-03 DIIS/MOM
   @DF-UKS iter  39: -4921.30920728017099   -5.45697e-12   8.60248e-03 DIIS/MOM
   @DF-UKS iter  40: -4921.30920728017009    9.09495e-13   8.60248e-03 DIIS/MOM
   @DF-UKS iter  41: -4921.30920728016008    1.00044e-11   8.60248e-03 DIIS/MOM
   @DF-UKS iter  42: -4921.30920728016645   -6.36646e-12   8.60248e-03 DIIS/MOM
   @DF-UKS iter  43: -4921.30920728016918   -2.72848e-12   8.60248e-03 DIIS/MOM
   @DF-UKS iter  44: -4921.30920728016281    6.36646e-12   8.60248e-03 DIIS/MOM
   @DF-UKS iter  45: -4921.30920728017099   -8.18545e-12   8.60248e-03 DIIS/MOM
   @DF-UKS iter  46: -4921.30920728017009    9.09495e-13   8.60248e-03 DIIS/MOM
   @DF-UKS iter  47: -4921.30920728016372    6.36646e-12   8.60248e-03 DIIS/MOM
   @DF-UKS iter  48: -4921.30920728017099   -7.27596e-12   8.60248e-03 DIIS/MOM
   @DF-UKS iter  49: -4921.30920728016645    4.54747e-12   8.60248e-03 DIIS/MOM
   @DF-UKS iter  50: -4921.30920728016554    9.09495e-13   8.60248e-03 DIIS/MOM
   @DF-UKS iter  51: -4921.30920728016736   -1.81899e-12   8.60248e-03 DIIS/MOM
   @DF-UKS iter  52: -4921.30920728016827   -9.09495e-13   8.60248e-03 DIIS/MOM
   @DF-UKS iter  53: -4921.30920728016554    2.72848e-12   8.60248e-03 DIIS/MOM
   @DF-UKS iter  54: -4921.30920728017281   -7.27596e-12   8.60248e-03 DIIS/MOM
   @DF-UKS iter  55: -4921.30920728016918    3.63798e-12   8.60248e-03 DIIS/MOM
   @DF-UKS iter  56: -4921.30920728017099   -1.81899e-12   8.60248e-03 DIIS/MOM
   @DF-UKS iter  57: -4921.30920728016918    1.81899e-12   8.60248e-03 DIIS/MOM
   @DF-UKS iter  58: -4921.30920728016645    2.72848e-12   8.60248e-03 DIIS/MOM
   @DF-UKS iter  59: -4921.30920728016736   -9.09495e-13   8.60248e-03 DIIS/MOM
   @DF-UKS iter  60: -4921.30920728017281   -5.45697e-12   8.60248e-03 DIIS/MOM
   @DF-UKS iter  61: -4921.30920728016827    4.54747e-12   8.60248e-03 DIIS/MOM
   @DF-UKS iter  62: -4921.30920728016645    1.81899e-12   8.60248e-03 DIIS/MOM
   @DF-UKS iter  63: -4921.30920728016645    0.00000e+00   8.60248e-03 DIIS/MOM
   @DF-UKS iter  64: -4921.30920728016190    4.54747e-12   8.60248e-03 DIIS/MOM
   @DF-UKS iter  65: -4921.30920728016281   -9.09495e-13   8.60248e-03 DIIS/MOM
   @DF-UKS iter  66: -4921.30920728017099   -8.18545e-12   8.60248e-03 DIIS/MOM
   @DF-UKS iter  67: -4921.30920728017009    9.09495e-13   8.60248e-03 DIIS/MOM
   @DF-UKS iter  68: -4921.30920728016372    6.36646e-12   8.60248e-03 DIIS/MOM
   @DF-UKS iter  69: -4921.30920728017372   -1.00044e-11   8.60248e-03 DIIS/MOM
   @DF-UKS iter  70: -4921.30920728017099    2.72848e-12   8.60248e-03 DIIS/MOM
   @DF-UKS iter  71: -4921.30920728017554   -4.54747e-12   8.60248e-03 DIIS/MOM
   @DF-UKS iter  72: -4921.30920728016827    7.27596e-12   8.60248e-03 DIIS/MOM
   @DF-UKS iter  73: -4921.30920728016827    0.00000e+00   8.60248e-03 DIIS/MOM
   @DF-UKS iter  74: -4921.30920728016645    1.81899e-12   8.60248e-03 DIIS/MOM
   @DF-UKS iter  75: -4921.30920728017009   -3.63798e-12   8.60248e-03 DIIS/MOM
   @DF-UKS iter  76: -4921.30920728017099   -9.09495e-13   8.60248e-03 DIIS/MOM
   @DF-UKS iter  77: -4921.30920728016463    6.36646e-12   8.60248e-03 DIIS/MOM
   @DF-UKS iter  78: -4921.30920728017099   -6.36646e-12   8.60248e-03 DIIS/MOM
   @DF-UKS iter  79: -4921.30920728016190    9.09495e-12   8.60248e-03 DIIS/MOM
   @DF-UKS iter  80: -4921.30920728017009   -8.18545e-12   8.60248e-03 DIIS/MOM
   @DF-UKS iter  81: -4921.30920728016736    2.72848e-12   8.60248e-03 DIIS/MOM
   @DF-UKS iter  82: -4921.30920728016918   -1.81899e-12   8.60248e-03 DIIS/MOM
   @DF-UKS iter  83: -4921.30920728016190    7.27596e-12   8.60248e-03 DIIS/MOM
   @DF-UKS iter  84: -4921.30920728016281   -9.09495e-13   8.60248e-03 DIIS/MOM
   @DF-UKS iter  85: -4921.30920728016372   -9.09495e-13   8.60248e-03 DIIS/MOM
   @DF-UKS iter  86: -4921.30920728017190   -8.18545e-12   8.60248e-03 DIIS/MOM
   @DF-UKS iter  87: -4921.30920728016190    1.00044e-11   8.60248e-03 DIIS/MOM
   @DF-UKS iter  88: -4921.30920728017281   -1.09139e-11   8.60248e-03 DIIS/MOM
   @DF-UKS iter  89: -4921.30920728016099    1.18234e-11   8.60248e-03 DIIS/MOM
   @DF-UKS iter  90: -4921.30920728016372   -2.72848e-12   8.60248e-03 DIIS/MOM
   @DF-UKS iter  91: -4921.30920728017190   -8.18545e-12   8.60248e-03 DIIS/MOM
   @DF-UKS iter  92: -4921.30920728017099    9.09495e-13   8.60248e-03 DIIS/MOM
   @DF-UKS iter  93: -4921.30920728016554    5.45697e-12   8.60248e-03 DIIS/MOM
   @DF-UKS iter  94: -4921.30920728015826    7.27596e-12   8.60248e-03 DIIS/MOM
   @DF-UKS iter  95: -4921.30920728016736   -9.09495e-12   8.60248e-03 DIIS/MOM
   @DF-UKS iter  96: -4921.30920728017009   -2.72848e-12   8.60248e-03 DIIS/MOM
   @DF-UKS iter  97: -4921.30920728016463    5.45697e-12   8.60248e-03 DIIS/MOM
   @DF-UKS iter  98: -4921.30920728017099   -6.36646e-12   8.60248e-03 DIIS/MOM
   @DF-UKS iter  99: -4921.30920728016281    8.18545e-12   8.60248e-03 DIIS/MOM
   @DF-UKS iter 100: -4921.30920728016736   -4.54747e-12   8.60248e-03 DIIS/MOM

PsiException: Could not converge SCF iterations in 100 iterations.

  Failed to converge.

Traceback (most recent call last):
  File "/mnt/storage/home/zw18965/.conda/envs/p4env/bin/psi4", line 333, in <module>
    exec(content)
  File "<string>", line 32, in <module>
  File "/mnt/storage/home/zw18965/.conda/envs/p4env/lib//python3.8/site-packages/psi4/driver/driver.py", line 1756, in frequency
    H, wfn = hessian(name, return_wfn=True, molecule=molecule, **kwargs)
  File "/mnt/storage/home/zw18965/.conda/envs/p4env/lib//python3.8/site-packages/psi4/driver/driver.py", line 1591, in hessian
    _process_displacement(
  File "/mnt/storage/home/zw18965/.conda/envs/p4env/lib//python3.8/site-packages/psi4/driver/driver.py", line 194, in _process_displacement
    derivative, wfn = derivfunc(method, return_wfn=True, molecule=clone, **kwargs)
  File "/mnt/storage/home/zw18965/.conda/envs/p4env/lib//python3.8/site-packages/psi4/driver/driver.py", line 739, in gradient
    wfn = procedures['gradient'][lowername](lowername, molecule=molecule, **kwargs)
  File "/mnt/storage/home/zw18965/.conda/envs/p4env/lib//python3.8/site-packages/psi4/driver/procrouting/proc.py", line 2485, in run_scf_gradient
    ref_wfn = run_scf(name, **kwargs)
  File "/mnt/storage/home/zw18965/.conda/envs/p4env/lib//python3.8/site-packages/psi4/driver/procrouting/proc.py", line 2390, in run_scf
    scf_wfn = scf_helper(name, post_scf=False, **kwargs)
  File "/mnt/storage/home/zw18965/.conda/envs/p4env/lib//python3.8/site-packages/psi4/driver/procrouting/proc.py", line 1607, in scf_helper
    e_scf = scf_wfn.compute_energy()
  File "/mnt/storage/home/zw18965/.conda/envs/p4env/lib//python3.8/site-packages/psi4/driver/procrouting/scf_proc/scf_iterator.py", line 93, in scf_compute_energy
    raise e
  File "/mnt/storage/home/zw18965/.conda/envs/p4env/lib//python3.8/site-packages/psi4/driver/procrouting/scf_proc/scf_iterator.py", line 86, in scf_compute_energy
    self.iterations()
  File "/mnt/storage/home/zw18965/.conda/envs/p4env/lib//python3.8/site-packages/psi4/driver/procrouting/scf_proc/scf_iterator.py", line 473, in scf_iterate
    raise SCFConvergenceError("""SCF iterations""", self.iteration_, self, Ediff, Dnorm)

psi4.driver.p4util.exceptions.SCFConvergenceError: Could not converge SCF iterations in 100 iterations.


Printing out the relevant lines from the Psithon --> Python processed input file:
    core.set_global_option("REFERENCE", "uks")
    core.set_global_option("DYNAMIC_LEVEL", 1)
    core.set_global_option("BASIS", "Def2-TZVPPD")
    core.set_global_option("MOM_START", 10)
    optimize("GAM")
--> frequencies("GAM")

!-------------------------------------------------------!
!                                                       !
!  Could not converge SCF iterations in 100 iterations. !
!                                                       !
!-------------------------------------------------------!

    Psi4 stopped on: Friday, 05 November 2021 01:37PM
    Psi4 wall time for execution: 0:07:00.87

*** Psi4 encountered an error. Buy a developer more coffee!
*** Resources and help at github.com/psi4/psi4.
