Optimizer: Optimization complete!
 6 displacements needed.
 1 2 3 4 5 6
Warning: thermodynamics relations excluded imaginary frequencies: ['77.1917i' '77.1917i']
Warning: used thermodynamics relations inappropriate for low-frequency modes: ['127.3057' '209.7105']
At level 1: Red. Int., RFO, no backsteps, dynamic trust
At level 1: Red. Int., RFO, no backsteps, dynamic trust
At level 1: Red. Int., RFO, no backsteps, dynamic trust
At level 1: Red. Int., RFO, no backsteps, dynamic trust
At level 1: Red. Int., RFO, no backsteps, dynamic trust
er III, K. Patkowski, R. A. King, E. F. Valeev,
    F. A. Evangelista, J. M. Turney, T. D. Crawford, and C. D. Sherrill,
    J. Chem. Theory Comput. 13(7) pp 3185--3197 (2017).
    (doi: 10.1021/acs.jctc.7b00174)


                         Additional Contributions by
    P. Kraus, H. Kruse, M. H. Lechner, M. C. Schieber, R. A. Shaw,
    A. Alenaizan, R. Galvelis, Z. L. Glick, S. Lehtola, and J. P. Misiewicz

    -----------------------------------------------------------------------


    Psi4 started on: Friday, 29 October 2021 08:21AM

    Process ID: 161874
    Host:       bp1-compute00133.data.bp.acrc.priv
    PSIDATADIR: /work/zw18965/.conda/envs/p4env/share/psi4
    Memory:     500.0 MiB
    Threads:    24
    
  ==> Input File <==

--------------------------------------------------------------------------
memory 144 GB

molecule {
1 1
Cu       0.000000    0.000000    0.000000 
Cu       0.000000    0.000000    2.337165 
Cu       0.000000    0.000000   -2.337165 
 }

set dynamic_level 1
set basis Def2-TZVPPD

optimize("GAM")
frequencies("GAM")
--------------------------------------------------------------------------

  Memory set to 134.110 GiB by Python driver.
gradient() will perform analytic gradient computation.

*** tstart() called on bp1-compute00133.data.bp.acrc.priv
*** at Fri Oct 29 08:21:13 2021

   => Loading Basis Set <=

    Name: DEF2-TZVPPD
    Role: ORBITAL
    Keyword: BASIS
    atoms 1-3 entry CU         line  1290 file /work/zw18965/.conda/envs/p4env/share/psi4/basis/def2-tzvppd.gbs 


         ---------------------------------------------------------
                                   SCF
               by Justin Turney, Rob Parrish, Andy Simmonett
                          and Daniel G. A. Smith
                              RKS Reference
                       24 Threads, 137329 MiB Core
         ---------------------------------------------------------

  ==> Geometry <==

    Molecular point group: d2h
    Full point group: D_inf_h

    Geometry (in Angstrom), charge = 1, multiplicity = 1:

       Center              X                  Y                   Z               Mass       
    ------------   -----------------  -----------------  -----------------  -----------------
         CU           0.000000000000     0.000000000000     0.000000000000    62.929597720000
         CU           0.000000000000     0.000000000000     2.337165000000    62.929597720000
         CU           0.000000000000     0.000000000000    -2.337165000000    62.929597720000

  Running in d2h symmetry.

  Rotational constants: A = ************  B =      0.02452  C =      0.02452 [cm^-1]
  Rotational constants: A = ************  B =    735.11198  C =    735.11198 [MHz]
  Nuclear repulsion =  476.044731729969840

  Charge       = 1
  Multiplicity = 1
  Electrons    = 86
  Nalpha       = 43
  Nbeta        = 43

  ==> Algorithm <==

  SCF Algorithm Type is DF.
  DIIS enabled.
  MOM disabled.
  Fractional occupation disabled.
  Guess Type is SAD.
  Energy threshold   = 1.00e-08
  Density threshold  = 1.00e-08
  Integral threshold = 0.00e+00

  ==> Primary Basis <==

  Basis Set: DEF2-TZVPPD
    Blend: DEF2-TZVPPD
    Number of shells: 57
    Number of basis function: 201
    Number of Cartesian functions: 249
    Spherical Harmonics?: true
    Max angular momentum: 4

  ==> DFT Potential <==

   => Composite Functional: GAM <= 

   GAM GGA Minessota Exchange-Correlation Functional

    H.S. Yu, et al., Phys. Chem. Chem. Phys. 17, 12146, 2015


    Deriv               =              1
    GGA                 =           TRUE
    Meta                =          FALSE

    Exchange Hybrid     =          FALSE
    MP2 Hybrid          =          FALSE

   => Exchange Functionals <=

    1.0000     XC_GGA_X_GAM

   => Correlation Functionals <=

    1.0000     XC_GGA_C_GAM

   => Molecular Quadrature <=

    Radial Scheme          =       TREUTLER
    Pruning Scheme         =           FLAT
    Nuclear Scheme         =       TREUTLER

    BS radius alpha        =              1
    Pruning alpha          =              1
    Radial Points          =             75
    Spherical Points       =            302
    Total Points           =          67950
    Total Blocks           =            621
    Max Points             =            254
    Max Functions          =            170

   => Loading Basis Set <=

    Name: (DEF2-TZVPPD AUX)
    Role: JKFIT
    Keyword: DF_BASIS_SCF
    atoms 1-3 entry CU         line  2361 file /work/zw18965/.conda/envs/p4env/share/psi4/basis/def2-tzvpp-jkfit.gbs 

  ==> Pre-Iterations <==

   -------------------------------------------------------
    Irrep   Nso     Nmo     Nalpha   Nbeta   Ndocc  Nsocc
   -------------------------------------------------------
     Ag        44      44       0       0       0       0
     B1g       14      14       0       0       0       0
     B2g       22      22       0       0       0       0
     B3g       22      22       0       0       0       0
     Au        10      10       0       0       0       0
     B1u       37      37       0       0       0       0
     B2u       26      26       0       0       0       0
     B3u       26      26       0       0       0       0
   -------------------------------------------------------
    Total     201     201      43      43      43       0
   -------------------------------------------------------

  ==> Integral Setup <==

  DFHelper Memory: AOs need 0.224 GiB; user supplied 100.341 GiB. Using in-core AOs.

  ==> MemDFJK: Density-Fitted J/K Matrices <==

    J tasked:                   Yes
    K tasked:                    No
    wK tasked:                   No
    OpenMP threads:              24
    Memory [MiB]:            102749
    Algorithm:                 Core
    Schwarz Cutoff:           1E-12
    Mask sparsity (%):      15.7471
    Fitting Condition:        1E-10

   => Auxiliary Basis Set <=

  Basis Set: (DEF2-TZVPPD AUX)
    Blend: DEF2-TZVPP-JKFIT
    Number of shells: 174
    Number of basis function: 792
    Number of Cartesian functions: 1131
    Spherical Harmonics?: true
    Max angular momentum: 6

  Cached 100.0% of DFT collocation blocks in 0.242 [GiB].

  Minimum eigenvalue in the overlap matrix is 3.5514189840E-04.
  Using Symmetric Orthogonalization.

  SCF Guess: Superposition of Atomic Densities via on-the-fly atomic UHF.

  ==> Iterations <==

                           Total Energy        Delta E     RMS |[F,P]|

   @DF-RKS iter SAD: -4917.58078882706650   -4.91758e+03   0.00000e+00 
    Occupation by irrep:
             Ag   B1g   B2g   B3g    Au   B1u   B2u   B3u 
    DOCC [    13,    1,    3,    3,    0,   10,    7,    6 ]

   @DF-RKS iter   1: -4914.22748249471988    3.35331e+00   1.01583e-01 DIIS
    Occupation by irrep:
             Ag   B1g   B2g   B3g    Au   B1u   B2u   B3u 
    DOCC [    13,    2,    4,    4,    1,    9,    5,    5 ]

   @DF-RKS iter   2: -4790.88401547881313    1.23343e+02   2.17692e-01 DIIS
    Occupation by irrep:
             Ag   B1g   B2g   B3g    Au   B1u   B2u   B3u 
    DOCC [    12,    1,    4,    3,    1,   10,    6,    6 ]

   @DF-RKS iter   3: -4921.91546022183320   -1.31031e+02   3.99667e-02 DIIS
    Occupation by irrep:
             Ag   B1g   B2g   B3g    Au   B1u   B2u   B3u 
    DOCC [    13,    2,    4,    4,    1,    9,    5,    5 ]

   @DF-RKS iter   4: -4888.05255372911597    3.38629e+01   8.86051e-02 DIIS
   @DF-RKS iter   5: -4908.95143042973268   -2.08989e+01   1.00345e-01 DIIS
   @DF-RKS iter   6: -4923.37824961285696   -1.44268e+01   2.51669e-02 DIIS
    Occupation by irrep:
             Ag   B1g   B2g   B3g    Au   B1u   B2u   B3u 
    DOCC [    12,    2,    4,    4,    1,   10,    5,    5 ]

   @DF-RKS iter   7: -4924.10095604152775   -7.22706e-01   4.31156e-03 DIIS
    Occupation by irrep:
             Ag   B1g   B2g   B3g    Au   B1u   B2u   B3u 
    DOCC [    13,    2,    4,    4,    1,    9,    5,    5 ]

   @DF-RKS iter   8: -4922.37441458734611    1.72654e+00   2.77654e-02 DIIS
   @DF-RKS iter   9: -4924.12611829823982   -1.75170e+00   1.36030e-03 DIIS
   @DF-RKS iter  10: -4924.13229611253519   -6.17781e-03   6.99479e-04 DIIS
   @DF-RKS iter  11: -4924.13273463182577   -4.38519e-04   2.33492e-04 DIIS
   @DF-RKS iter  12: -4924.13278945365346   -5.48218e-05   1.30329e-04 DIIS
   @DF-RKS iter  13: -4924.13280668583684   -1.72322e-05   2.28224e-05 DIIS
   @DF-RKS iter  14: -4924.13280725076675   -5.64930e-07   6.50334e-06 DIIS
   @DF-RKS iter  15: -4924.13280732085150   -7.00848e-08   1.08915e-06 DIIS
   @DF-RKS iter  16: -4924.13280732206113   -1.20963e-09   2.10745e-08 DIIS
   @DF-RKS iter  17: -4924.13280732206022    9.09495e-13   3.19616e-09 DIIS
  Energy and wave function converged.


  ==> Post-Iterations <==

    Orbital Energies [Eh]
    ---------------------

    Doubly Occupied:                                                      

       1B1u -321.088383     1Ag  -321.088376     2Ag  -321.060785  
       2B1u  -38.554735     3Ag   -38.554712     4Ag   -38.532724  
       5Ag   -33.955028     3B1u  -33.955026     1B3g  -33.952735  
       1B2g  -33.952735     1B2u  -33.952734     1B3u  -33.952734  
       4B1u  -33.932618     2B2u  -33.930173     2B3u  -33.930173  
       5B1u   -4.329552     6Ag    -4.329541     7Ag    -4.303079  
       6B1u   -2.869512     8Ag    -2.869354     3B2u   -2.864923  
       3B3u   -2.864923     2B3g   -2.864923     2B2g   -2.864923  
       7B1u   -2.844240     4B2u   -2.836968     4B3u   -2.836968  
       9Ag    -0.450567     3B3g   -0.424542     3B2g   -0.424542  
       8B1u   -0.420123     5B2u   -0.416347     5B3u   -0.416347  
       1B1g   -0.411526    10Ag    -0.411517     1Au    -0.410981  
       9B1u   -0.410972    11Ag    -0.392135     4B3g   -0.381392  
       4B2g   -0.381392     2B1g   -0.380927    12Ag    -0.380913  
      13Ag    -0.371821  

    Virtual:                                                              

      10B1u   -0.350281    14Ag    -0.253873     6B2u   -0.215984  
       6B3u   -0.215984    11B1u   -0.180654     5B3g   -0.165352  
       5B2g   -0.165352     7B2u   -0.084998     7B3u   -0.084998  
      15Ag    -0.070635    16Ag    -0.049831    12B1u   -0.048617  
       8B2u   -0.021862     8B3u   -0.021862     3B1g   -0.016755  
      17Ag    -0.016755    13B1u   -0.007385     6B3g    0.003435  
       6B2g    0.003435    18Ag     0.025105     2Au     0.029424  
      14B1u    0.029424     9B2u    0.046233     9B3u    0.046233  
       7B3g    0.064009     7B2g    0.064009    19Ag     0.068761  
      15B1u    0.109613     4B1g    0.113355    20Ag     0.113356  
      16B1u    0.137509    10B2u    0.170467    10B3u    0.170467  
      21Ag     0.194130     8B3g    0.271342     8B2g    0.271342  
      22Ag     0.303615    17B1u    0.349052    18B1u    0.404521  
      11B2u    0.452960    11B3u    0.452960     9B3g    0.475076  
       9B2g    0.475076    12B2u    0.532464    12B3u    0.532464  
      23Ag     0.559185     5B1g    0.636009    24Ag     0.636022  
      10B3g    0.671168    10B2g    0.671168     3Au     0.672339  
      19B1u    0.672350    20B1u    0.689714    25Ag     0.714558  
      13B2u    0.730408    13B3u    0.730408     6B1g    0.740379  
      26Ag     0.740390    11B3g    0.917388    11B2g    0.917388  
      21B1u    0.942318    27Ag     1.222692    28Ag     2.662915  
      14B2u    2.680446    14B3u    2.680446    12B3g    2.769008  
      12B2g    2.769008    22B1u    2.789747    15B2u    2.805379  
      15B3u    2.805379    23B1u    2.816299    29Ag     2.919196  
      24B1u    3.054917    30Ag     3.094112    13B3g    3.138496  
      13B2g    3.138496    16B2u    3.142114    16B3u    3.142114  
       4Au     3.150990    25B1u    3.151026     7B1g    3.151630  
      31Ag     3.151666    17B2u    3.153959    17B3u    3.153959  
      14B3g    3.153960    14B2g    3.153960    18B2u    3.182499  
      18B3u    3.182499     5Au     3.185504    26B1u    3.185563  
      19B3u    3.193601    19B2u    3.193601    27B1u    3.206844  
      32Ag     3.259963     8B1g    3.346157    33Ag     3.346241  
       6Au     3.365344    28B1u    3.365420    15B3g    3.399661  
      15B2g    3.399661     9B1g    3.423783    34Ag     3.423876  
      29B1u    3.442443    20B2u    3.470994    20B3u    3.470994  
      16B3g    3.572634    16B2g    3.572634    35Ag     3.681319  
      30B1u    3.780207    36Ag     4.120801    21B2u   12.552239  
      21B3u   12.552239     7Au    12.552798    10B1g   12.552838  
      17B3g   12.552841    17B2g   12.552841    31B1u   12.553358  
      32B1u   12.553690    37Ag    12.553710    38Ag    12.553730  
      22B3u   12.554676    22B2u   12.554676    18B2g   12.554688  
      18B3g   12.554688    33B1u   12.555956    39Ag    12.555957  
      11B1g   12.556167     8Au    12.556167    19B3g   12.581845  
      19B2g   12.581845    12B1g   12.582510    40Ag    12.583924  
      41Ag    12.584769    20B2g   12.586093    20B3g   12.586093  
      42Ag    12.589405    13B1g   12.589693    23B2u   12.689469  
      23B3u   12.689469     9Au    12.690198    34B1u   12.690409  
      14B1g   12.691076    43Ag    12.691286    21B3g   12.692554  
      21B2g   12.692554    24B3u   12.692555    24B2u   12.692555  
      35B1u   12.701064    22B3g   12.701856    22B2g   12.701856  
      10Au    12.715365    36B1u   12.715648    25B2u   12.718723  
      25B3u   12.718723    26B2u   12.726885    26B3u   12.726885  
      44Ag    12.769074    37B1u   12.810081  

    Final Occupation by Irrep:
             Ag   B1g   B2g   B3g    Au   B1u   B2u   B3u 
    DOCC [    13,    2,    4,    4,    1,    9,    5,    5 ]

  @DF-RKS Final Energy: -4924.13280732206022

   => Energetics <=

    Nuclear Repulsion Energy =            476.0447317299698398
    One-Electron Energy =               -7807.7171388330052650
    Two-Electron Energy =                2612.5360433952346284
    DFT Exchange-Correlation Energy =    -204.9964436142590216
    Empirical Dispersion Energy =           0.0000000000000000
    VV10 Nonlocal Energy =                  0.0000000000000000
    Total Energy =                      -4924.1328073220602164

Computation Completed


Properties will be evaluated at   0.000000,   0.000000,   0.000000 [a0]

Properties computed using the SCF density matrix

  Nuclear Dipole Moment: [e a0]
     X:     0.0000      Y:     0.0000      Z:    -0.0000

  Electronic Dipole Moment: [e a0]
     X:     0.0000      Y:     0.0000      Z:     0.0000

  Dipole Moment: [e a0]
     X:     0.0000      Y:     0.0000      Z:    -0.0000     Total:     0.0000

  Dipole Moment: [D]
     X:     0.0000      Y:     0.0000      Z:    -0.0000     Total:     0.0000


*** tstop() called on bp1-compute00133.data.bp.acrc.priv at Fri Oct 29 08:21:16 2021
Module time:
	user time   =      46.76 seconds =       0.78 minutes
	system time =       2.20 seconds =       0.04 minutes
	total time  =          3 seconds =       0.05 minutes
Total time:
	user time   =      46.76 seconds =       0.78 minutes
	system time =       2.20 seconds =       0.04 minutes
	total time  =          3 seconds =       0.05 minutes

*** tstart() called on bp1-compute00133.data.bp.acrc.priv
*** at Fri Oct 29 08:21:16 2021


         ------------------------------------------------------------
                                   SCF GRAD                          
                          Rob Parrish, Justin Turney,                
                       Andy Simmonett, and Alex Sokolov              
         ------------------------------------------------------------

  ==> Geometry <==

    Molecular point group: d2h
    Full point group: D_inf_h

    Geometry (in Angstrom), charge = 1, multiplicity = 1:

       Center              X                  Y                   Z               Mass       
    ------------   -----------------  -----------------  -----------------  -----------------
         CU           0.000000000000     0.000000000000     0.000000000000    62.929597720000
         CU           0.000000000000     0.000000000000     2.337165000000    62.929597720000
         CU           0.000000000000     0.000000000000    -2.337165000000    62.929597720000

  Nuclear repulsion =  476.044731729969840

  ==> Basis Set <==

  Basis Set: DEF2-TZVPPD
    Blend: DEF2-TZVPPD
    Number of shells: 57
    Number of basis function: 201
    Number of Cartesian functions: 249
    Spherical Harmonics?: true
    Max angular momentum: 4

  ==> DFJKGrad: Density-Fitted SCF Gradients <==

    Gradient:                    1
    J tasked:                  Yes
    K tasked:                   No
    wK tasked:                  No
    OpenMP threads:             24
    Integrals threads:          24
    Memory [MiB]:           102996
    Schwarz Cutoff:          0E+00
    Fitting Condition:       1E-10

   => Auxiliary Basis Set <=

  Basis Set: (DEF2-TZVPPD AUX)
    Blend: DEF2-TZVPP-JKFIT
    Number of shells: 174
    Number of basis function: 792
    Number of Cartesian functions: 1131
    Spherical Harmonics?: true
    Max angular momentum: 6

  ==> DFT Potential <==

   => Composite Functional: GAM <= 

   GAM GGA Minessota Exchange-Correlation Functional

    H.S. Yu, et al., Phys. Chem. Chem. Phys. 17, 12146, 2015


    Deriv               =              1
    GGA                 =           TRUE
    Meta                =          FALSE

    Exchange Hybrid     =          FALSE
    MP2 Hybrid          =          FALSE

   => Exchange Functionals <=

    1.0000     XC_GGA_X_GAM

   => Correlation Functionals <=

    1.0000     XC_GGA_C_GAM

   => Molecular Quadrature <=

    Radial Scheme          =       TREUTLER
    Pruning Scheme         =           FLAT
    Nuclear Scheme         =       TREUTLER

    BS radius alpha        =              1
    Pruning alpha          =              1
    Radial Points          =             75
    Spherical Points       =            302
    Total Points           =          67950
    Total Blocks           =            621
    Max Points             =            254
    Max Functions          =            170


  -Total Gradient:
     Atom            X                  Y                   Z
    ------   -----------------  -----------------  -----------------
       1        0.000000000000    -0.000000000000     0.000000000000
       2       -0.000000000000     0.000000000000    -0.007727254206
       3        0.000000000000    -0.000000000000     0.007727254206


*** tstop() called on bp1-compute00133.data.bp.acrc.priv at Fri Oct 29 08:21:21 2021
Module time:
	user time   =      48.68 seconds =       0.81 minutes
	system time =       7.70 seconds =       0.13 minutes
	total time  =          5 seconds =       0.08 minutes
Total time:
	user time   =      95.47 seconds =       1.59 minutes
	system time =       9.90 seconds =       0.17 minutes
	total time  =          8 seconds =       0.13 minutes

			-----------------------------------------
			 OPTKING 2.0: for geometry optimizations 
			  - R.A. King,  Bethel University        
			-----------------------------------------
	At level 1: Red. Int., RFO, no backsteps, dynamic trust

	Internal coordinates to be generated automatically.
	Detected frag 1 with atoms:  1 2 3
	---Fragment 1 Bond Connectivity---
	 1 : 2 3
	 2 : 1
	 3 : 1

	---Fragment 1 Geometry and Gradient---
	 CU          0.0000000000        0.0000000000        0.0000000000
	 CU          0.0000000000        0.0000000000        4.4166017600
	 CU          0.0000000000        0.0000000000       -4.4166017600
	             0.0000000000       -0.0000000000        0.0000000000
	            -0.0000000000        0.0000000000       -0.0077272542
	             0.0000000000       -0.0000000000        0.0077272542

	Previous optimization step data not found.  Starting new optimization.

	---Fragment 1 Intrafragment Coordinates---
	 - Coordinate -           - BOHR/RAD -       - ANG/DEG -
	 R(1,2)           =         4.416602	       2.337165
	 R(1,3)           =         4.416602	       2.337165
	 L(2,1,3)         =         3.141593	     180.000000
	 l(2,1,3)         =         3.141593	     180.000000

	Current energy   :     -4924.1328073221

	Generating empirical Hessian (Schlegel '84) for each fragment.
	Taking RFO optimization step.
	Going to follow RFO solution 1.
	Using RFO vector 1.
	Norm of target step-size    0.08111
	Projected energy change by RFO approximation:         0.0023870632

	Back-transformation to cartesian coordinates...
	Successfully converged to displaced geometry.

	--- Internal Coordinate Step in ANG or DEG, aJ/ANG or AJ/DEG ---
	 ---------------------------------------------------------------------------
	   Coordinate                Previous        Force       Change         New 
	   ----------                --------       ------       ------       ------
	    1 R(1,2)          =      2.337165     0.063663     0.030349     2.367514
	    2 R(1,3)          =      2.337165     0.063663     0.030349     2.367514
	    3 L(2,1,3)        =    180.000000    -0.000000     0.000000   180.000000
	    4 l(2,1,3)        =    180.000000     0.000000     0.000000   180.000000
	 ---------------------------------------------------------------------------
	Successfully symmetrized geometry.

  ==> Convergence Check <==

  Measures of convergence in internal coordinates in au.
  Criteria marked as inactive (o), active & met (*), and active & unmet ( ).
  --------------------------------------------------------------------------------------------- ~
   Step     Total Energy     Delta E     MAX Force     RMS Force      MAX Disp      RMS Disp    ~
  --------------------------------------------------------------------------------------------- ~
    Convergence Criteria    1.00e-06 *    3.00e-04 *             o    1.20e-03 *             o  ~
  --------------------------------------------------------------------------------------------- ~
      1   -4924.13280732   -4.92e+03      7.73e-03      5.46e-03 o    5.74e-02      4.06e-02 o  ~
  ---------------------------------------------------------------------------------------------

	Writing optimization data to binary file.
	Structure for next step:
	Cartesian Geometry (in Angstrom)
	   CU    -0.0000000000   0.0000000000   0.0000000000
	   CU     0.0000000000   0.0000000000   2.3675136199
	   CU     0.0000000000   0.0000000000  -2.3675136199
			--------------------------
			 OPTKING Finished Execution 
			--------------------------

    Structure for next step:
    Molecular point group: d2h
    Full point group: D_inf_h

    Geometry (in Angstrom), charge = 1, multiplicity = 1:

    CU           0.000000000000     0.000000000000     0.000000000000
    CU           0.000000000000    -0.000000000000     2.367513629181
    CU           0.000000000000    -0.000000000000    -2.367513629181

gradient() will perform analytic gradient computation.

*** tstart() called on bp1-compute00133.data.bp.acrc.priv
*** at Fri Oct 29 08:21:21 2021

   => Loading Basis Set <=

    Name: DEF2-TZVPPD
    Role: ORBITAL
    Keyword: BASIS
    atoms 1-3 entry CU         line  1290 file /work/zw18965/.conda/envs/p4env/share/psi4/basis/def2-tzvppd.gbs 


         ---------------------------------------------------------
                                   SCF
               by Justin Turney, Rob Parrish, Andy Simmonett
                          and Daniel G. A. Smith
                              RKS Reference
                       24 Threads, 137329 MiB Core
         ---------------------------------------------------------

  ==> Geometry <==

    Molecular point group: d2h
    Full point group: D_inf_h

    Geometry (in Angstrom), charge = 1, multiplicity = 1:

       Center              X                  Y                   Z               Mass       
    ------------   -----------------  -----------------  -----------------  -----------------
         CU           0.000000000000     0.000000000000     0.000000000000    62.929597720000
         CU          -0.000000000000     0.000000000000     2.367513629181    62.929597720000
         CU          -0.000000000000     0.000000000000    -2.367513629181    62.929597720000

  Running in d2h symmetry.

  Rotational constants: A = ************  B =      0.02390  C =      0.02390 [cm^-1]
  Rotational constants: A = ************  B =    716.38630  C =    716.38630 [MHz]
  Nuclear repulsion =  469.942420487149377

  Charge       = 1
  Multiplicity = 1
  Electrons    = 86
  Nalpha       = 43
  Nbeta        = 43

  ==> Algorithm <==

  SCF Algorithm Type is DF.
  DIIS enabled.
  MOM disabled.
  Fractional occupation disabled.
  Guess Type is READ.
  Energy threshold   = 1.00e-08
  Density threshold  = 1.00e-08
  Integral threshold = 0.00e+00

  ==> Primary Basis <==

  Basis Set: DEF2-TZVPPD
    Blend: DEF2-TZVPPD
    Number of shells: 57
    Number of basis function: 201
    Number of Cartesian functions: 249
    Spherical Harmonics?: true
    Max angular momentum: 4

  ==> DFT Potential <==

   => Composite Functional: GAM <= 

   GAM GGA Minessota Exchange-Correlation Functional

    H.S. Yu, et al., Phys. Chem. Chem. Phys. 17, 12146, 2015


    Deriv               =              1
    GGA                 =           TRUE
    Meta                =          FALSE

    Exchange Hybrid     =          FALSE
    MP2 Hybrid          =          FALSE

   => Exchange Functionals <=

    1.0000     XC_GGA_X_GAM

   => Correlation Functionals <=

    1.0000     XC_GGA_C_GAM

   => Molecular Quadrature <=

    Radial Scheme          =       TREUTLER
    Pruning Scheme         =           FLAT
    Nuclear Scheme         =       TREUTLER

    BS radius alpha        =              1
    Pruning alpha          =              1
    Radial Points          =             75
    Spherical Points       =            302
    Total Points           =          67950
    Total Blocks           =            622
    Max Points             =            252
    Max Functions          =            170

   => Loading Basis Set <=

    Name: (DEF2-TZVPPD AUX)
    Role: JKFIT
    Keyword: DF_BASIS_SCF
    atoms 1-3 entry CU         line  2361 file /work/zw18965/.conda/envs/p4env/share/psi4/basis/def2-tzvpp-jkfit.gbs 

   => Loading Basis Set <=

    Name: DEF2-TZVPPD
    Role: ORBITAL
    Keyword: BASIS
    atoms 1-3 entry CU         line  1290 file /work/zw18965/.conda/envs/p4env/share/psi4/basis/def2-tzvppd.gbs 

  Reading orbitals from file 180, no projection.

  ==> Pre-Iterations <==

   -------------------------------------------------------
    Irrep   Nso     Nmo     Nalpha   Nbeta   Ndocc  Nsocc
   -------------------------------------------------------
     Ag        44      44       0       0       0       0
     B1g       14      14       0       0       0       0
     B2g       22      22       0       0       0       0
     B3g       22      22       0       0       0       0
     Au        10      10       0       0       0       0
     B1u       37      37       0       0       0       0
     B2u       26      26       0       0       0       0
     B3u       26      26       0       0       0       0
   -------------------------------------------------------
    Total     201     201      43      43      43       0
   -------------------------------------------------------

  ==> Integral Setup <==

  DFHelper Memory: AOs need 0.224 GiB; user supplied 100.342 GiB. Using in-core AOs.

  ==> MemDFJK: Density-Fitted J/K Matrices <==

    J tasked:                   Yes
    K tasked:                    No
    wK tasked:                   No
    OpenMP threads:              24
    Memory [MiB]:            102749
    Algorithm:                 Core
    Schwarz Cutoff:           1E-12
    Mask sparsity (%):      16.1234
    Fitting Condition:        1E-10

   => Auxiliary Basis Set <=

  Basis Set: (DEF2-TZVPPD AUX)
    Blend: DEF2-TZVPP-JKFIT
    Number of shells: 174
    Number of basis function: 792
    Number of Cartesian functions: 1131
    Spherical Harmonics?: true
    Max angular momentum: 6

  Cached 100.0% of DFT collocation blocks in 0.241 [GiB].

  Minimum eigenvalue in the overlap matrix is 3.7176675336E-04.
  Using Symmetric Orthogonalization.

  SCF Guess: Orbitals guess was supplied from a previous computation.

  ==> Iterations <==

                           Total Energy        Delta E     RMS |[F,P]|

   @DF-RKS iter   0: -4924.14116287792422   -4.92414e+03   1.27278e-03 
   @DF-RKS iter   1: -4924.13351485286694    7.64803e-03   3.69329e-05 DIIS
   @DF-RKS iter   2: -4924.13349735243901    1.75004e-05   1.42702e-04 DIIS
   @DF-RKS iter   3: -4924.13351759744364   -2.02450e-05   1.85758e-05 DIIS
   @DF-RKS iter   4: -4924.13351756159136    3.58523e-08   2.09006e-05 DIIS
   @DF-RKS iter   5: -4924.13351804965168   -4.88060e-07   2.92826e-06 DIIS
   @DF-RKS iter   6: -4924.13351806383798   -1.41863e-08   7.39642e-07 DIIS
   @DF-RKS iter   7: -4924.13351806538321   -1.54523e-09   1.40246e-07 DIIS
   @DF-RKS iter   8: -4924.13351806543142   -4.82032e-11   2.06791e-08 DIIS
   @DF-RKS iter   9: -4924.13351806542960    1.81899e-12   8.95892e-10 DIIS
  Energy and wave function converged.


  ==> Post-Iterations <==

    Orbital Energies [Eh]
    ---------------------

    Doubly Occupied:                                                      

       1B1u -321.087170     1Ag  -321.087163     2Ag  -321.059091  
       2B1u  -38.553434     3Ag   -38.553413     4Ag   -38.530815  
       5Ag   -33.953683     3B1u  -33.953682     1B2g  -33.951471  
       1B3g  -33.951471     1B3u  -33.951470     1B2u  -33.951470  
       4B1u  -33.930656     2B3u  -33.928325     2B2u  -33.928325  
       5B1u   -4.328257     6Ag    -4.328246     7Ag    -4.301207  
       6B1u   -2.868008     8Ag    -2.867892     3B3u   -2.863711  
       3B2u   -2.863711     2B2g   -2.863711     2B3g   -2.863711  
       7B1u   -2.842116     4B2u   -2.835243     4B3u   -2.835243  
       9Ag    -0.447117     3B3g   -0.422129     3B2g   -0.422129  
       8B1u   -0.418551     5B2u   -0.414853     5B3u   -0.414853  
       1B1g   -0.410317    10Ag    -0.410307     1Au    -0.409847  
       9B1u   -0.409837    11Ag    -0.391143     4B3g   -0.380316  
       4B2g   -0.380316     2B1g   -0.379397    12Ag    -0.379382  
      13Ag    -0.370463  

    Virtual:                                                              

      10B1u   -0.349642    14Ag    -0.254635     6B3u   -0.214695  
       6B2u   -0.214695    11B1u   -0.181472     5B3g   -0.165353  
       5B2g   -0.165353     7B2u   -0.086354     7B3u   -0.086354  
      15Ag    -0.070349    16Ag    -0.050825    12B1u   -0.048421  
       8B2u   -0.021292     8B3u   -0.021292     3B1g   -0.016128  
      17Ag    -0.016127    13B1u   -0.007745     6B3g    0.003581  
       6B2g    0.003581    18Ag     0.022516     2Au     0.029365  
      14B1u    0.029366     9B2u    0.045729     9B3u    0.045729  
       7B3g    0.062371     7B2g    0.062371    19Ag     0.067471  
      15B1u    0.109688     4B1g    0.112154    20Ag     0.112156  
      16B1u    0.135523    10B2u    0.168076    10B3u    0.168076  
      21Ag     0.194683     8B2g    0.268463     8B3g    0.268463  
      22Ag     0.301691    17B1u    0.342925    18B1u    0.405355  
      11B2u    0.456229    11B3u    0.456229     9B3g    0.477061  
       9B2g    0.477061    12B2u    0.531235    12B3u    0.531235  
      23Ag     0.556871     5B1g    0.639143    24Ag     0.639154  
      10B2g    0.667247    10B3g    0.667247     3Au     0.672858  
      19B1u    0.672868    20B1u    0.689454    25Ag     0.708290  
      13B2u    0.729500    13B3u    0.729500     6B1g    0.738850  
      26Ag     0.738860    11B2g    0.910258    11B3g    0.910258  
      21B1u    0.930252    27Ag     1.208680    28Ag     2.657806  
      14B2u    2.682185    14B3u    2.682185    12B3g    2.766004  
      12B2g    2.766004    22B1u    2.791396    15B2u    2.805850  
      15B3u    2.805850    23B1u    2.809050    29Ag     2.915075  
      24B1u    3.048125    30Ag     3.094827    13B2g    3.141831  
      13B3g    3.141831    16B2u    3.146173    16B3u    3.146173  
       4Au     3.152351    25B1u    3.152386     7B1g    3.153057  
      31Ag     3.153091    17B3u    3.154975    17B2u    3.154975  
      14B2g    3.154975    14B3g    3.154975    18B2u    3.179653  
      18B3u    3.179653     5Au     3.187624    26B1u    3.187680  
      19B2u    3.194933    19B3u    3.194933    27B1u    3.211363  
      32Ag     3.250960     8B1g    3.347588    33Ag     3.347673  
       6Au     3.365591    28B1u    3.365669    15B3g    3.393526  
      15B2g    3.393526    29B1u    3.420870     9B1g    3.423761  
      34Ag     3.423856    20B2u    3.465413    20B3u    3.465413  
      16B2g    3.568782    16B3g    3.568782    35Ag     3.664215  
      30B1u    3.762107    36Ag     4.099936    21B3u   12.553585  
      21B2u   12.553585     7Au    12.554091    17B2g   12.554109  
      17B3g   12.554109    10B1g   12.554123    31B1u   12.554657  
      37Ag    12.554978    32B1u   12.554980    38Ag    12.555013  
      22B2u   12.555891    22B3u   12.555891    18B3g   12.555901  
      18B2g   12.555901    33B1u   12.557085    39Ag    12.557085  
      11B1g   12.557273     8Au    12.557273    19B2g   12.583708  
      19B3g   12.583708    12B1g   12.584345    40Ag    12.585752  
      41Ag    12.586485    20B2g   12.587786    20B3g   12.587786  
      42Ag    12.590927    13B1g   12.591183    23B3u   12.691053  
      23B2u   12.691053     9Au    12.691533    34B1u   12.691725  
      14B1g   12.692315    43Ag    12.692505    21B2g   12.693727  
      21B3g   12.693727    24B3u   12.693727    24B2u   12.693727  
      22B2g   12.701607    22B3g   12.701607    35B1u   12.703932  
      10Au    12.717230    36B1u   12.717483    25B3u   12.720405  
      25B2u   12.720405    26B3u   12.726726    26B2u   12.726726  
      44Ag    12.761268    37B1u   12.799748  

    Final Occupation by Irrep:
             Ag   B1g   B2g   B3g    Au   B1u   B2u   B3u 
    DOCC [    13,    2,    4,    4,    1,    9,    5,    5 ]

  @DF-RKS Final Energy: -4924.13351806542960

   => Energetics <=

    Nuclear Repulsion Energy =            469.9424204871493771
    One-Electron Energy =               -7795.6462032113195164
    Two-Electron Energy =                2606.5631434108495341
    DFT Exchange-Correlation Energy =    -204.9928787521095614
    Empirical Dispersion Energy =           0.0000000000000000
    VV10 Nonlocal Energy =                  0.0000000000000000
    Total Energy =                      -4924.1335180654295982

Computation Completed


Properties will be evaluated at   0.000000,   0.000000,   0.000000 [a0]

Properties computed using the SCF density matrix

  Nuclear Dipole Moment: [e a0]
     X:     0.0000      Y:    -0.0000      Z:     0.0000

  Electronic Dipole Moment: [e a0]
     X:     0.0000      Y:     0.0000      Z:     0.0000

  Dipole Moment: [e a0]
     X:     0.0000      Y:    -0.0000      Z:     0.0000     Total:     0.0000

  Dipole Moment: [D]
     X:     0.0000      Y:    -0.0000      Z:     0.0000     Total:     0.0000


*** tstop() called on bp1-compute00133.data.bp.acrc.priv at Fri Oct 29 08:21:23 2021
Module time:
	user time   =      32.63 seconds =       0.54 minutes
	system time =       1.21 seconds =       0.02 minutes
	total time  =          2 seconds =       0.03 minutes
Total time:
	user time   =     128.32 seconds =       2.14 minutes
	system time =      11.12 seconds =       0.19 minutes
	total time  =         10 seconds =       0.17 minutes

*** tstart() called on bp1-compute00133.data.bp.acrc.priv
*** at Fri Oct 29 08:21:23 2021


         ------------------------------------------------------------
                                   SCF GRAD                          
                          Rob Parrish, Justin Turney,                
                       Andy Simmonett, and Alex Sokolov              
         ------------------------------------------------------------

  ==> Geometry <==

    Molecular point group: d2h
    Full point group: D_inf_h

    Geometry (in Angstrom), charge = 1, multiplicity = 1:

       Center              X                  Y                   Z               Mass       
    ------------   -----------------  -----------------  -----------------  -----------------
         CU           0.000000000000    -0.000000000000     0.000000000000    62.929597720000
         CU           0.000000000000     0.000000000000     2.367513629181    62.929597720000
         CU           0.000000000000     0.000000000000    -2.367513629181    62.929597720000

  Nuclear repulsion =  469.942420487149377

  ==> Basis Set <==

  Basis Set: DEF2-TZVPPD
    Blend: DEF2-TZVPPD
    Number of shells: 57
    Number of basis function: 201
    Number of Cartesian functions: 249
    Spherical Harmonics?: true
    Max angular momentum: 4

  ==> DFJKGrad: Density-Fitted SCF Gradients <==

    Gradient:                    1
    J tasked:                  Yes
    K tasked:                   No
    wK tasked:                  No
    OpenMP threads:             24
    Integrals threads:          24
    Memory [MiB]:           102996
    Schwarz Cutoff:          0E+00
    Fitting Condition:       1E-10

   => Auxiliary Basis Set <=

  Basis Set: (DEF2-TZVPPD AUX)
    Blend: DEF2-TZVPP-JKFIT
    Number of shells: 174
    Number of basis function: 792
    Number of Cartesian functions: 1131
    Spherical Harmonics?: true
    Max angular momentum: 6

  ==> DFT Potential <==

   => Composite Functional: GAM <= 

   GAM GGA Minessota Exchange-Correlation Functional

    H.S. Yu, et al., Phys. Chem. Chem. Phys. 17, 12146, 2015


    Deriv               =              1
    GGA                 =           TRUE
    Meta                =          FALSE

    Exchange Hybrid     =          FALSE
    MP2 Hybrid          =          FALSE

   => Exchange Functionals <=

    1.0000     XC_GGA_X_GAM

   => Correlation Functionals <=

    1.0000     XC_GGA_C_GAM

   => Molecular Quadrature <=

    Radial Scheme          =       TREUTLER
    Pruning Scheme         =           FLAT
    Nuclear Scheme         =       TREUTLER

    BS radius alpha        =              1
    Pruning alpha          =              1
    Radial Points          =             75
    Spherical Points       =            302
    Total Points           =          67950
    Total Blocks           =            622
    Max Points             =            252
    Max Functions          =            170


  -Total Gradient:
     Atom            X                  Y                   Z
    ------   -----------------  -----------------  -----------------
       1        0.000000000000     0.000000000000     0.000000000000
       2        0.000000000000     0.000000000000    -0.004788554321
       3        0.000000000000     0.000000000000     0.004788554321


*** tstop() called on bp1-compute00133.data.bp.acrc.priv at Fri Oct 29 08:21:29 2021
Module time:
	user time   =      48.29 seconds =       0.80 minutes
	system time =       2.80 seconds =       0.05 minutes
	total time  =          6 seconds =       0.10 minutes
Total time:
	user time   =     176.63 seconds =       2.94 minutes
	system time =      13.92 seconds =       0.23 minutes
	total time  =         16 seconds =       0.27 minutes

			-----------------------------------------
			 OPTKING 2.0: for geometry optimizations 
			  - R.A. King,  Bethel University        
			-----------------------------------------
	At level 1: Red. Int., RFO, no backsteps, dynamic trust

	Previous internal coordinate definitions found.
	---Fragment 1 Geometry and Gradient---
	 CU          0.0000000000       -0.0000000000        0.0000000000
	 CU          0.0000000000        0.0000000000        4.4739523574
	 CU          0.0000000000        0.0000000000       -4.4739523574
	             0.0000000000        0.0000000000        0.0000000000
	             0.0000000000        0.0000000000       -0.0047885543
	             0.0000000000        0.0000000000        0.0047885543

	---Fragment 1 Intrafragment Coordinates---
	 - Coordinate -           - BOHR/RAD -       - ANG/DEG -
	 R(1,2)           =         4.473952	       2.367514
	 R(1,3)           =         4.473952	       2.367514
	 L(2,1,3)         =         3.141593	     180.000000
	 l(2,1,3)         =         3.141593	     180.000000

	Current energy   :     -4924.1335180654

	Energy change for the previous step:
		Projected    :         0.0023870632
		Actual       :        -0.0007107434

	Performing BFGS update.
	Previous computed or guess Hessian on step 1.
	Steps to be used in Hessian update: 1
	Taking RFO optimization step.
	Going to follow RFO solution 1.
	Using RFO vector 1.
	Norm of target step-size    0.12993
	Projected energy change by RFO approximation:         0.0050042101

	Back-transformation to cartesian coordinates...
	Successfully converged to displaced geometry.

	--- Internal Coordinate Step in ANG or DEG, aJ/ANG or AJ/DEG ---
	 ---------------------------------------------------------------------------
	   Coordinate                Previous        Force       Change         New 
	   ----------                --------       ------       ------       ------
	    1 R(1,2)          =      2.367514     0.039452     0.048618     2.416131
	    2 R(1,3)          =      2.367514     0.039452     0.048618     2.416131
	    3 L(2,1,3)        =    180.000000     0.000000     0.000000   180.000000
	    4 l(2,1,3)        =    180.000000    -0.000000     0.000000   180.000000
	 ---------------------------------------------------------------------------
	Successfully symmetrized geometry.

  ==> Convergence Check <==

  Measures of convergence in internal coordinates in au.
  Criteria marked as inactive (o), active & met (*), and active & unmet ( ).
  ---------------------------------------------------------------------------------------------
   Step     Total Energy     Delta E     MAX Force     RMS Force      MAX Disp      RMS Disp   
  ---------------------------------------------------------------------------------------------
    Convergence Criteria    1.00e-06 *    3.00e-04 *             o    1.20e-03 *             o
  ---------------------------------------------------------------------------------------------
      2   -4924.13351807   -7.11e-04      4.79e-03      3.39e-03 o    9.19e-02      6.50e-02 o  ~
  ---------------------------------------------------------------------------------------------

	Writing optimization data to binary file.
	Structure for next step:
	Cartesian Geometry (in Angstrom)
	   CU    -0.0000000000   0.0000000000   0.0000000000
	   CU     0.0000000000   0.0000000000   2.4161312792
	   CU     0.0000000000   0.0000000000  -2.4161312792
			--------------------------
			 OPTKING Finished Execution 
			--------------------------

    Structure for next step:
    Molecular point group: d2h
    Full point group: D_inf_h

    Geometry (in Angstrom), charge = 1, multiplicity = 1:

    CU           0.000000000000     0.000000000000     0.000000000000
    CU           0.000000000000    -0.000000000000     2.416131288696
    CU           0.000000000000    -0.000000000000    -2.416131288696

gradient() will perform analytic gradient computation.

*** tstart() called on bp1-compute00133.data.bp.acrc.priv
*** at Fri Oct 29 08:21:29 2021

   => Loading Basis Set <=

    Name: DEF2-TZVPPD
    Role: ORBITAL
    Keyword: BASIS
    atoms 1-3 entry CU         line  1290 file /work/zw18965/.conda/envs/p4env/share/psi4/basis/def2-tzvppd.gbs 


         ---------------------------------------------------------
                                   SCF
               by Justin Turney, Rob Parrish, Andy Simmonett
                          and Daniel G. A. Smith
                              RKS Reference
                       24 Threads, 137329 MiB Core
         ---------------------------------------------------------

  ==> Geometry <==

    Molecular point group: d2h
    Full point group: D_inf_h

    Geometry (in Angstrom), charge = 1, multiplicity = 1:

       Center              X                  Y                   Z               Mass       
    ------------   -----------------  -----------------  -----------------  -----------------
         CU           0.000000000000     0.000000000000     0.000000000000    62.929597720000
         CU          -0.000000000000     0.000000000000     2.416131288696    62.929597720000
         CU          -0.000000000000     0.000000000000    -2.416131288696    62.929597720000

  Running in d2h symmetry.

  Rotational constants: A = ************  B =      0.02294  C =      0.02294 [cm^-1]
  Rotational constants: A = ************  B =    687.84596  C =    687.84596 [MHz]
  Nuclear repulsion =  460.486187418380894

  Charge       = 1
  Multiplicity = 1
  Electrons    = 86
  Nalpha       = 43
  Nbeta        = 43

  ==> Algorithm <==

  SCF Algorithm Type is DF.
  DIIS enabled.
  MOM disabled.
  Fractional occupation disabled.
  Guess Type is READ.
  Energy threshold   = 1.00e-08
  Density threshold  = 1.00e-08
  Integral threshold = 0.00e+00

  ==> Primary Basis <==

  Basis Set: DEF2-TZVPPD
    Blend: DEF2-TZVPPD
    Number of shells: 57
    Number of basis function: 201
    Number of Cartesian functions: 249
    Spherical Harmonics?: true
    Max angular momentum: 4

  ==> DFT Potential <==

   => Composite Functional: GAM <= 

   GAM GGA Minessota Exchange-Correlation Functional

    H.S. Yu, et al., Phys. Chem. Chem. Phys. 17, 12146, 2015


    Deriv               =              1
    GGA                 =           TRUE
    Meta                =          FALSE

    Exchange Hybrid     =          FALSE
    MP2 Hybrid          =          FALSE

   => Exchange Functionals <=

    1.0000     XC_GGA_X_GAM

   => Correlation Functionals <=

    1.0000     XC_GGA_C_GAM

   => Molecular Quadrature <=

    Radial Scheme          =       TREUTLER
    Pruning Scheme         =           FLAT
    Nuclear Scheme         =       TREUTLER

    BS radius alpha        =              1
    Pruning alpha          =              1
    Radial Points          =             75
    Spherical Points       =            302
    Total Points           =          67950
    Total Blocks           =            620
    Max Points             =            256
    Max Functions          =            170

   => Loading Basis Set <=

    Name: (DEF2-TZVPPD AUX)
    Role: JKFIT
    Keyword: DF_BASIS_SCF
    atoms 1-3 entry CU         line  2361 file /work/zw18965/.conda/envs/p4env/share/psi4/basis/def2-tzvpp-jkfit.gbs 

   => Loading Basis Set <=

    Name: DEF2-TZVPPD
    Role: ORBITAL
    Keyword: BASIS
    atoms 1-3 entry CU         line  1290 file /work/zw18965/.conda/envs/p4env/share/psi4/basis/def2-tzvppd.gbs 

  Reading orbitals from file 180, no projection.

  ==> Pre-Iterations <==

   -------------------------------------------------------
    Irrep   Nso     Nmo     Nalpha   Nbeta   Ndocc  Nsocc
   -------------------------------------------------------
     Ag        44      44       0       0       0       0
     B1g       14      14       0       0       0       0
     B2g       22      22       0       0       0       0
     B3g       22      22       0       0       0       0
     Au        10      10       0       0       0       0
     B1u       37      37       0       0       0       0
     B2u       26      26       0       0       0       0
     B3u       26      26       0       0       0       0
   -------------------------------------------------------
    Total     201     201      43      43      43       0
   -------------------------------------------------------

  ==> Integral Setup <==

  DFHelper Memory: AOs need 0.222 GiB; user supplied 100.342 GiB. Using in-core AOs.

  ==> MemDFJK: Density-Fitted J/K Matrices <==

    J tasked:                   Yes
    K tasked:                    No
    wK tasked:                   No
    OpenMP threads:              24
    Memory [MiB]:            102750
    Algorithm:                 Core
    Schwarz Cutoff:           1E-12
    Mask sparsity (%):      16.7372
    Fitting Condition:        1E-10

   => Auxiliary Basis Set <=

  Basis Set: (DEF2-TZVPPD AUX)
    Blend: DEF2-TZVPP-JKFIT
    Number of shells: 174
    Number of basis function: 792
    Number of Cartesian functions: 1131
    Spherical Harmonics?: true
    Max angular momentum: 6

  Cached 100.0% of DFT collocation blocks in 0.240 [GiB].

  Minimum eigenvalue in the overlap matrix is 4.0110208984E-04.
  Using Symmetric Orthogonalization.

  SCF Guess: Orbitals guess was supplied from a previous computation.

  ==> Iterations <==

                           Total Energy        Delta E     RMS |[F,P]|

   @DF-RKS iter   0: -4924.14481340237307   -4.92414e+03   1.90672e-03 
   @DF-RKS iter   1: -4924.13398087338555    1.08325e-02   6.26398e-05 DIIS
   @DF-RKS iter   2: -4924.13393285626807    4.80171e-05   2.41549e-04 DIIS
   @DF-RKS iter   3: -4924.13398894739657   -5.60911e-05   3.86400e-05 DIIS
   @DF-RKS iter   4: -4924.13399051551733   -1.56812e-06   1.63019e-05 DIIS
   @DF-RKS iter   5: -4924.13399089222366   -3.76706e-07   8.94316e-06 DIIS
   @DF-RKS iter   6: -4924.13399096987268   -7.76490e-08   1.24289e-06 DIIS
   @DF-RKS iter   7: -4924.13399097445381   -4.58112e-09   2.69696e-07 DIIS
   @DF-RKS iter   8: -4924.13399097461934   -1.65528e-10   3.08735e-08 DIIS
   @DF-RKS iter   9: -4924.13399097462207   -2.72848e-12   1.71971e-09 DIIS
  Energy and wave function converged.


  ==> Post-Iterations <==

    Orbital Energies [Eh]
    ---------------------

    Doubly Occupied:                                                      

       1B1u -321.085276     1Ag  -321.085270     2Ag  -321.056486  
       2B1u  -38.551409     3Ag   -38.551391     4Ag   -38.527879  
       5Ag   -33.951590     3B1u  -33.951589     1B2g  -33.949503  
       1B3g  -33.949503     1B3u  -33.949502     1B2u  -33.949502  
       4B1u  -33.927631     2B2u  -33.925485     2B3u  -33.925485  
       5B1u   -4.326251     6Ag    -4.326239     7Ag    -4.298374  
       6B1u   -2.865714     8Ag    -2.865642     3B2u   -2.861828  
       3B3u   -2.861828     2B3g   -2.861828     2B2g   -2.861828  
       7B1u   -2.838895     4B3u   -2.832632     4B2u   -2.832632  
       9Ag    -0.441864     3B2g   -0.418567     3B3g   -0.418567  
       8B1u   -0.416145     5B3u   -0.412564     5B2u   -0.412564  
       1B1g   -0.408457    10Ag    -0.408446     1Au    -0.408085  
       9B1u   -0.408074    11Ag    -0.389560     4B2g   -0.378576  
       4B3g   -0.378576     2B1g   -0.377075    12Ag    -0.377058  
      13Ag    -0.368326  

    Virtual:                                                              

      10B1u   -0.348577    14Ag    -0.255829     6B3u   -0.212674  
       6B2u   -0.212674    11B1u   -0.182654     5B3g   -0.165315  
       5B2g   -0.165315     7B2u   -0.088485     7B3u   -0.088485  
      15Ag    -0.070027    16Ag    -0.052491    12B1u   -0.048091  
       8B2u   -0.020377     8B3u   -0.020377     3B1g   -0.015127  
      17Ag    -0.015126    13B1u   -0.008310     6B2g    0.003816  
       6B3g    0.003816    18Ag     0.018574     2Au     0.029317  
      14B1u    0.029319     9B2u    0.044947     9B3u    0.044947  
       7B2g    0.059781     7B3g    0.059781    19Ag     0.065517  
      15B1u    0.109530     4B1g    0.110250    20Ag     0.110252  
      16B1u    0.132364    10B2u    0.164271    10B3u    0.164271  
      21Ag     0.195207     8B3g    0.263886     8B2g    0.263886  
      22Ag     0.299133    17B1u    0.332508    18B1u    0.408479  
      11B2u    0.461024    11B3u    0.461024     9B3g    0.480594  
       9B2g    0.480594    12B2u    0.529529    12B3u    0.529529  
      23Ag     0.553016     5B1g    0.643955    24Ag     0.643962  
      10B3g    0.661659    10B2g    0.661659     3Au     0.673633  
      19B1u    0.673640    20B1u    0.689045    25Ag     0.698435  
      13B2u    0.728603    13B3u    0.728603     6B1g    0.736533  
      26Ag     0.736539    11B3g    0.899060    11B2g    0.899060  
      21B1u    0.911394    27Ag     1.185573    28Ag     2.650639  
      14B3u    2.685419    14B2u    2.685419    12B2g    2.761748  
      12B3g    2.761748    22B1u    2.764351    15B2u    2.805800  
      15B3u    2.805800    23B1u    2.829494    29Ag     2.906005  
      24B1u    3.038713    30Ag     3.097818    13B2g    3.147156  
      13B3g    3.147156    16B3u    3.151895    16B2u    3.151895  
       4Au     3.154367    25B1u    3.154396     7B1g    3.155180  
      31Ag     3.155208    17B2u    3.156555    17B3u    3.156555  
      14B3g    3.156556    14B2g    3.156556    18B3u    3.177231  
      18B2u    3.177231     5Au     3.190719    26B1u    3.190765  
      19B3u    3.196907    19B2u    3.196907    27B1u    3.216046  
      32Ag     3.237875     8B1g    3.350023    33Ag     3.350107  
       6Au     3.366150    28B1u    3.366226    15B2g    3.383884  
      15B3g    3.383884    29B1u    3.386987     9B1g    3.423633  
      34Ag     3.423726    20B3u    3.456573    20B2u    3.456573  
      16B3g    3.562996    16B2g    3.562996    35Ag     3.634755  
      30B1u    3.733280    36Ag     4.065870    21B2u   12.555665  
      21B3u   12.555665    17B3g   12.556077    17B2g   12.556077  
       7Au    12.556092    10B1g   12.556115    31B1u   12.556626  
      37Ag    12.556910    32B1u   12.556969    38Ag    12.556992  
      22B3u   12.557771    22B2u   12.557771    18B2g   12.557780  
      18B3g   12.557780    33B1u   12.558843    39Ag    12.558843  
      11B1g   12.558999     8Au    12.558999    19B2g   12.586510  
      19B3g   12.586510    12B1g   12.587100    40Ag    12.588481  
      41Ag    12.588957    20B2g   12.590323    20B3g   12.590323  
      42Ag    12.593216    13B1g   12.593430    23B3u   12.693279  
      23B2u   12.693279     9Au    12.693590    34B1u   12.693751  
      14B1g   12.694253    43Ag    12.694414    21B3g   12.695551  
      21B2g   12.695551    24B2u   12.695552    24B3u   12.695552  
      22B2g   12.701573    22B3g   12.701573    35B1u   12.706965  
      10Au    12.720084    36B1u   12.720295    25B2u   12.722957  
      25B3u   12.722957    26B3u   12.727025    26B2u   12.727025  
      44Ag    12.750358    37B1u   12.785990  

    Final Occupation by Irrep:
             Ag   B1g   B2g   B3g    Au   B1u   B2u   B3u 
    DOCC [    13,    2,    4,    4,    1,    9,    5,    5 ]

  @DF-RKS Final Energy: -4924.13399097462207

   => Energetics <=

    Nuclear Repulsion Energy =            460.4861874183808936
    One-Electron Energy =               -7776.9379464744451980
    Two-Electron Energy =                2597.3056449722253092
    DFT Exchange-Correlation Energy =    -204.9878768907832978
    Empirical Dispersion Energy =           0.0000000000000000
    VV10 Nonlocal Energy =                  0.0000000000000000
    Total Energy =                      -4924.1339909746220656

Computation Completed


Properties will be evaluated at   0.000000,   0.000000,   0.000000 [a0]

Properties computed using the SCF density matrix

  Nuclear Dipole Moment: [e a0]
     X:     0.0000      Y:     0.0000      Z:    -0.0000

  Electronic Dipole Moment: [e a0]
     X:     0.0000      Y:     0.0000      Z:     0.0000

  Dipole Moment: [e a0]
     X:     0.0000      Y:     0.0000      Z:    -0.0000     Total:     0.0000

  Dipole Moment: [D]
     X:     0.0000      Y:     0.0000      Z:    -0.0000     Total:     0.0000


*** tstop() called on bp1-compute00133.data.bp.acrc.priv at Fri Oct 29 08:21:30 2021
Module time:
	user time   =      31.90 seconds =       0.53 minutes
	system time =       1.12 seconds =       0.02 minutes
	total time  =          1 seconds =       0.02 minutes
Total time:
	user time   =     209.00 seconds =       3.48 minutes
	system time =      15.06 seconds =       0.25 minutes
	total time  =         17 seconds =       0.28 minutes

*** tstart() called on bp1-compute00133.data.bp.acrc.priv
*** at Fri Oct 29 08:21:30 2021


         ------------------------------------------------------------
                                   SCF GRAD                          
                          Rob Parrish, Justin Turney,                
                       Andy Simmonett, and Alex Sokolov              
         ------------------------------------------------------------

  ==> Geometry <==

    Molecular point group: d2h
    Full point group: D_inf_h

    Geometry (in Angstrom), charge = 1, multiplicity = 1:

       Center              X                  Y                   Z               Mass       
    ------------   -----------------  -----------------  -----------------  -----------------
         CU           0.000000000000    -0.000000000000     0.000000000000    62.929597720000
         CU           0.000000000000     0.000000000000     2.416131288696    62.929597720000
         CU           0.000000000000     0.000000000000    -2.416131288696    62.929597720000

  Nuclear repulsion =  460.486187418380894

  ==> Basis Set <==

  Basis Set: DEF2-TZVPPD
    Blend: DEF2-TZVPPD
    Number of shells: 57
    Number of basis function: 201
    Number of Cartesian functions: 249
    Spherical Harmonics?: true
    Max angular momentum: 4

  ==> DFJKGrad: Density-Fitted SCF Gradients <==

    Gradient:                    1
    J tasked:                  Yes
    K tasked:                   No
    wK tasked:                  No
    OpenMP threads:             24
    Integrals threads:          24
    Memory [MiB]:           102996
    Schwarz Cutoff:          0E+00
    Fitting Condition:       1E-10

   => Auxiliary Basis Set <=

  Basis Set: (DEF2-TZVPPD AUX)
    Blend: DEF2-TZVPP-JKFIT
    Number of shells: 174
    Number of basis function: 792
    Number of Cartesian functions: 1131
    Spherical Harmonics?: true
    Max angular momentum: 6

  ==> DFT Potential <==

   => Composite Functional: GAM <= 

   GAM GGA Minessota Exchange-Correlation Functional

    H.S. Yu, et al., Phys. Chem. Chem. Phys. 17, 12146, 2015


    Deriv               =              1
    GGA                 =           TRUE
    Meta                =          FALSE

    Exchange Hybrid     =          FALSE
    MP2 Hybrid          =          FALSE

   => Exchange Functionals <=

    1.0000     XC_GGA_X_GAM

   => Correlation Functionals <=

    1.0000     XC_GGA_C_GAM

   => Molecular Quadrature <=

    Radial Scheme          =       TREUTLER
    Pruning Scheme         =           FLAT
    Nuclear Scheme         =       TREUTLER

    BS radius alpha        =              1
    Pruning alpha          =              1
    Radial Points          =             75
    Spherical Points       =            302
    Total Points           =          67950
    Total Blocks           =            620
    Max Points             =            256
    Max Functions          =            170


  -Total Gradient:
     Atom            X                  Y                   Z
    ------   -----------------  -----------------  -----------------
       1        0.000000000000     0.000000000000     0.000000000000
       2        0.000000000000     0.000000000000    -0.000673904294
       3       -0.000000000000     0.000000000000     0.000673904294


*** tstop() called on bp1-compute00133.data.bp.acrc.priv at Fri Oct 29 08:21:36 2021
Module time:
	user time   =      51.02 seconds =       0.85 minutes
	system time =       3.15 seconds =       0.05 minutes
	total time  =          6 seconds =       0.10 minutes
Total time:
	user time   =     260.05 seconds =       4.33 minutes
	system time =      18.21 seconds =       0.30 minutes
	total time  =         23 seconds =       0.38 minutes

			-----------------------------------------
			 OPTKING 2.0: for geometry optimizations 
			  - R.A. King,  Bethel University        
			-----------------------------------------
	At level 1: Red. Int., RFO, no backsteps, dynamic trust

	Previous internal coordinate definitions found.
	---Fragment 1 Geometry and Gradient---
	 CU          0.0000000000       -0.0000000000        0.0000000000
	 CU          0.0000000000        0.0000000000        4.5658264188
	 CU          0.0000000000        0.0000000000       -4.5658264188
	             0.0000000000        0.0000000000        0.0000000000
	             0.0000000000        0.0000000000       -0.0006739043
	            -0.0000000000        0.0000000000        0.0006739043

	---Fragment 1 Intrafragment Coordinates---
	 - Coordinate -           - BOHR/RAD -       - ANG/DEG -
	 R(1,2)           =         4.565826	       2.416131
	 R(1,3)           =         4.565826	       2.416131
	 L(2,1,3)         =         3.141593	     180.000000
	 l(2,1,3)         =         3.141593	     180.000000

	Current energy   :     -4924.1339909746

	Energy change for the previous step:
		Projected    :         0.0050042101
		Actual       :        -0.0004729092

	Performing BFGS update.
	Previous computed or guess Hessian on step 1.
	Steps to be used in Hessian update: 2 1
	Taking RFO optimization step.
	Going to follow RFO solution 1.
	Using RFO vector 1.
	Norm of target step-size    0.02015
	Projected energy change by RFO approximation:         0.0001243622

	Back-transformation to cartesian coordinates...
	Successfully converged to displaced geometry.

	--- Internal Coordinate Step in ANG or DEG, aJ/ANG or AJ/DEG ---
	 ---------------------------------------------------------------------------
	   Coordinate                Previous        Force       Change         New 
	   ----------                --------       ------       ------       ------
	    1 R(1,2)          =      2.416131     0.005552     0.007542     2.423673
	    2 R(1,3)          =      2.416131     0.005552     0.007542     2.423673
	    3 L(2,1,3)        =    180.000000    -0.000000     0.000000   180.000000
	    4 l(2,1,3)        =    180.000000     0.000000     0.000000   180.000000
	 ---------------------------------------------------------------------------
	Successfully symmetrized geometry.

  ==> Convergence Check <==

  Measures of convergence in internal coordinates in au.
  Criteria marked as inactive (o), active & met (*), and active & unmet ( ).
  ---------------------------------------------------------------------------------------------
   Step     Total Energy     Delta E     MAX Force     RMS Force      MAX Disp      RMS Disp   
  ---------------------------------------------------------------------------------------------
    Convergence Criteria    1.00e-06 *    3.00e-04 *             o    1.20e-03 *             o
  ---------------------------------------------------------------------------------------------
      3   -4924.13399097   -4.73e-04      6.74e-04      4.77e-04 o    1.43e-02      1.01e-02 o  ~
  ---------------------------------------------------------------------------------------------

	Writing optimization data to binary file.
	Structure for next step:
	Cartesian Geometry (in Angstrom)
	   CU     0.0000000000   0.0000000000   0.0000000000
	   CU     0.0000000000  -0.0000000000   2.4236729586
	   CU     0.0000000000  -0.0000000000  -2.4236729586
			--------------------------
			 OPTKING Finished Execution 
			--------------------------

    Structure for next step:
    Molecular point group: d2h
    Full point group: D_inf_h

    Geometry (in Angstrom), charge = 1, multiplicity = 1:

    CU           0.000000000000     0.000000000000     0.000000000000
    CU          -0.000000000000     0.000000000000     2.423672968082
    CU          -0.000000000000     0.000000000000    -2.423672968082

gradient() will perform analytic gradient computation.

*** tstart() called on bp1-compute00133.data.bp.acrc.priv
*** at Fri Oct 29 08:21:36 2021

   => Loading Basis Set <=

    Name: DEF2-TZVPPD
    Role: ORBITAL
    Keyword: BASIS
    atoms 1-3 entry CU         line  1290 file /work/zw18965/.conda/envs/p4env/share/psi4/basis/def2-tzvppd.gbs 


         ---------------------------------------------------------
                                   SCF
               by Justin Turney, Rob Parrish, Andy Simmonett
                          and Daniel G. A. Smith
                              RKS Reference
                       24 Threads, 137329 MiB Core
         ---------------------------------------------------------

  ==> Geometry <==

    Molecular point group: d2h
    Full point group: D_inf_h

    Geometry (in Angstrom), charge = 1, multiplicity = 1:

       Center              X                  Y                   Z               Mass       
    ------------   -----------------  -----------------  -----------------  -----------------
         CU           0.000000000000    -0.000000000000     0.000000000000    62.929597720000
         CU           0.000000000000     0.000000000000     2.423672968082    62.929597720000
         CU           0.000000000000     0.000000000000    -2.423672968082    62.929597720000

  Running in d2h symmetry.

  Rotational constants: A = ************  B =      0.02280  C =      0.02280 [cm^-1]
  Rotational constants: A = ************  B =    683.57191  C =    683.57191 [MHz]
  Nuclear repulsion =  459.053304668423038

  Charge       = 1
  Multiplicity = 1
  Electrons    = 86
  Nalpha       = 43
  Nbeta        = 43

  ==> Algorithm <==

  SCF Algorithm Type is DF.
  DIIS enabled.
  MOM disabled.
  Fractional occupation disabled.
  Guess Type is READ.
  Energy threshold   = 1.00e-08
  Density threshold  = 1.00e-08
  Integral threshold = 0.00e+00

  ==> Primary Basis <==

  Basis Set: DEF2-TZVPPD
    Blend: DEF2-TZVPPD
    Number of shells: 57
    Number of basis function: 201
    Number of Cartesian functions: 249
    Spherical Harmonics?: true
    Max angular momentum: 4

  ==> DFT Potential <==

   => Composite Functional: GAM <= 

   GAM GGA Minessota Exchange-Correlation Functional

    H.S. Yu, et al., Phys. Chem. Chem. Phys. 17, 12146, 2015


    Deriv               =              1
    GGA                 =           TRUE
    Meta                =          FALSE

    Exchange Hybrid     =          FALSE
    MP2 Hybrid          =          FALSE

   => Exchange Functionals <=

    1.0000     XC_GGA_X_GAM

   => Correlation Functionals <=

    1.0000     XC_GGA_C_GAM

   => Molecular Quadrature <=

    Radial Scheme          =       TREUTLER
    Pruning Scheme         =           FLAT
    Nuclear Scheme         =       TREUTLER

    BS radius alpha        =              1
    Pruning alpha          =              1
    Radial Points          =             75
    Spherical Points       =            302
    Total Points           =          67950
    Total Blocks           =            619
    Max Points             =            255
    Max Functions          =            170

   => Loading Basis Set <=

    Name: (DEF2-TZVPPD AUX)
    Role: JKFIT
    Keyword: DF_BASIS_SCF
    atoms 1-3 entry CU         line  2361 file /work/zw18965/.conda/envs/p4env/share/psi4/basis/def2-tzvpp-jkfit.gbs 

   => Loading Basis Set <=

    Name: DEF2-TZVPPD
    Role: ORBITAL
    Keyword: BASIS
    atoms 1-3 entry CU         line  1290 file /work/zw18965/.conda/envs/p4env/share/psi4/basis/def2-tzvppd.gbs 

  Reading orbitals from file 180, no projection.

  ==> Pre-Iterations <==

   -------------------------------------------------------
    Irrep   Nso     Nmo     Nalpha   Nbeta   Ndocc  Nsocc
   -------------------------------------------------------
     Ag        44      44       0       0       0       0
     B1g       14      14       0       0       0       0
     B2g       22      22       0       0       0       0
     B3g       22      22       0       0       0       0
     Au        10      10       0       0       0       0
     B1u       37      37       0       0       0       0
     B2u       26      26       0       0       0       0
     B3u       26      26       0       0       0       0
   -------------------------------------------------------
    Total     201     201      43      43      43       0
   -------------------------------------------------------

  ==> Integral Setup <==

  DFHelper Memory: AOs need 0.222 GiB; user supplied 100.343 GiB. Using in-core AOs.

  ==> MemDFJK: Density-Fitted J/K Matrices <==

    J tasked:                   Yes
    K tasked:                    No
    wK tasked:                   No
    OpenMP threads:              24
    Memory [MiB]:            102751
    Algorithm:                 Core
    Schwarz Cutoff:           1E-12
    Mask sparsity (%):      16.7669
    Fitting Condition:        1E-10

   => Auxiliary Basis Set <=

  Basis Set: (DEF2-TZVPPD AUX)
    Blend: DEF2-TZVPP-JKFIT
    Number of shells: 174
    Number of basis function: 792
    Number of Cartesian functions: 1131
    Spherical Harmonics?: true
    Max angular momentum: 6

  Cached 100.0% of DFT collocation blocks in 0.240 [GiB].

  Minimum eigenvalue in the overlap matrix is 4.0597442905E-04.
  Using Symmetric Orthogonalization.

  SCF Guess: Orbitals guess was supplied from a previous computation.

  ==> Iterations <==

                           Total Energy        Delta E     RMS |[F,P]|

   @DF-RKS iter   0: -4924.13529141891831   -4.92414e+03   2.78063e-04 
   @DF-RKS iter   1: -4924.13400224188899    1.28918e-03   1.20805e-05 DIIS
   @DF-RKS iter   2: -4924.13400042781814    1.81407e-06   4.62934e-05 DIIS
   @DF-RKS iter   3: -4924.13400252297470   -2.09516e-06   7.15057e-06 DIIS
   @DF-RKS iter   4: -4924.13400258552247   -6.25478e-08   3.30568e-06 DIIS
   @DF-RKS iter   5: -4924.13400259353693   -8.01447e-09   1.58057e-06 DIIS
   @DF-RKS iter   6: -4924.13400259684931   -3.31238e-09   2.54334e-07 DIIS
   @DF-RKS iter   7: -4924.13400259701393   -1.64619e-10   4.56330e-08 DIIS
   @DF-RKS iter   8: -4924.13400259702030   -6.36646e-12   4.89094e-09 DIIS
  Energy and wave function converged.


  ==> Post-Iterations <==

    Orbital Energies [Eh]
    ---------------------

    Doubly Occupied:                                                      

       1B1u -321.084985     1Ag  -321.084980     2Ag  -321.056095  
       2B1u  -38.551100     3Ag   -38.551082     4Ag   -38.527439  
       5Ag   -33.951269     3B1u  -33.951268     1B2g  -33.949202  
       1B3g  -33.949202     1B2u  -33.949201     1B3u  -33.949201  
       4B1u  -33.927177     2B3u  -33.925059     2B2u  -33.925059  
       5B1u   -4.325946     6Ag    -4.325934     7Ag    -4.297953  
       6B1u   -2.865367     8Ag    -2.865301     3B2u   -2.861542  
       3B3u   -2.861542     2B3g   -2.861541     2B2g   -2.861541  
       7B1u   -2.838416     4B2u   -2.832243     4B3u   -2.832243  
       9Ag    -0.441079     3B2g   -0.418045     3B3g   -0.418045  
       8B1u   -0.415779     5B3u   -0.412219     5B2u   -0.412219  
       1B1g   -0.408176    10Ag    -0.408165     1Au    -0.407817  
       9B1u   -0.407806    11Ag    -0.389316     4B3g   -0.378306  
       4B2g   -0.378306     2B1g   -0.376728    12Ag    -0.376712  
      13Ag    -0.368000  

    Virtual:                                                              

      10B1u   -0.348408    14Ag    -0.256012     6B3u   -0.212365  
       6B2u   -0.212365    11B1u   -0.182825     5B2g   -0.165305  
       5B3g   -0.165305     7B3u   -0.088811     7B2u   -0.088811  
      15Ag    -0.069996    16Ag    -0.052754    12B1u   -0.048038  
       8B3u   -0.020235     8B2u   -0.020235     3B1g   -0.014972  
      17Ag    -0.014971    13B1u   -0.008397     6B2g    0.003853  
       6B3g    0.003853    18Ag     0.017989     2Au     0.029315  
      14B1u    0.029317     9B2u    0.044828     9B3u    0.044828  
       7B3g    0.059383     7B2g    0.059383    19Ag     0.065226  
      15B1u    0.109467     4B1g    0.109957    20Ag     0.109959  
      16B1u    0.131884    10B2u    0.163684    10B3u    0.163684  
      21Ag     0.195249     8B2g    0.263181     8B3g    0.263181  
      22Ag     0.298790    17B1u    0.330856    18B1u    0.409141  
      11B3u    0.461715    11B2u    0.461715     9B2g    0.481174  
       9B3g    0.481174    12B2u    0.529291    12B3u    0.529291  
      23Ag     0.552418     5B1g    0.644678    24Ag     0.644684  
      10B2g    0.660871    10B3g    0.660871     3Au     0.673748  
      19B1u    0.673755    20B1u    0.688971    25Ag     0.696933  
      13B2u    0.728521    13B3u    0.728521     6B1g    0.736189  
      26Ag     0.736194    11B3g    0.897348    11B2g    0.897348  
      21B1u    0.908527    27Ag     1.181935    28Ag     2.649640  
      14B3u    2.685963    14B2u    2.685963    22B1u    2.760064  
      12B3g    2.761151    12B2g    2.761151    15B3u    2.805709  
      15B2u    2.805709    23B1u    2.832852    29Ag     2.904353  
      24B1u    3.037546    30Ag     3.098426    13B2g    3.147964  
      13B3g    3.147964    16B3u    3.152676    16B2u    3.152676  
       4Au     3.154666    25B1u    3.154694     7B1g    3.155492  
      31Ag     3.155519    17B2u    3.156796    17B3u    3.156796  
      14B3g    3.156796    14B2g    3.156796    18B3u    3.177091  
      18B2u    3.177091     5Au     3.191167    26B1u    3.191210  
      19B3u    3.197198    19B2u    3.197198    27B1u    3.216515  
      32Ag     3.235978     8B1g    3.350415    33Ag     3.350497  
       6Au     3.366253    28B1u    3.366329    29B1u    3.381814  
      15B3g    3.382430    15B2g    3.382430     9B1g    3.423605  
      34Ag     3.423697    20B2u    3.455233    20B3u    3.455233  
      16B2g    3.562135    16B3g    3.562135    35Ag     3.630038  
      30B1u    3.728842    36Ag     4.060545    21B3u   12.555980  
      21B2u   12.555980    17B2g   12.556377    17B3g   12.556377  
       7Au    12.556396    10B1g   12.556417    31B1u   12.556921  
      37Ag    12.557201    32B1u   12.557270    38Ag    12.557292  
      22B2u   12.558057    22B3u   12.558057    18B3g   12.558065  
      18B2g   12.558065    33B1u   12.559110    39Ag    12.559110  
       8Au    12.559263    11B1g   12.559263    19B3g   12.586926  
      19B2g   12.586926    12B1g   12.587509    40Ag    12.588884  
      41Ag    12.589316    20B2g   12.590699    20B3g   12.590699  
      42Ag    12.593556    13B1g   12.593764    23B3u   12.693602  
      23B2u   12.693602     9Au    12.693902    34B1u   12.694059  
      14B1g   12.694550    43Ag    12.694706    21B3g   12.695830  
      21B2g   12.695830    24B2u   12.695830    24B3u   12.695830  
      22B2g   12.701605    22B3g   12.701605    35B1u   12.707295  
      10Au    12.720512    36B1u   12.720716    25B2u   12.723338  
      25B3u   12.723338    26B2u   12.727119    26B3u   12.727119  
      44Ag    12.748840    37B1u   12.784140  

    Final Occupation by Irrep:
             Ag   B1g   B2g   B3g    Au   B1u   B2u   B3u 
    DOCC [    13,    2,    4,    4,    1,    9,    5,    5 ]

  @DF-RKS Final Energy: -4924.13400259702030

   => Energetics <=

    Nuclear Repulsion Energy =            459.0533046684230385
    One-Electron Energy =               -7774.1028505952235719
    Two-Electron Energy =                2595.9027198803919418
    DFT Exchange-Correlation Energy =    -204.9871765506114514
    Empirical Dispersion Energy =           0.0000000000000000
    VV10 Nonlocal Energy =                  0.0000000000000000
    Total Energy =                      -4924.1340025970193892

Computation Completed


Properties will be evaluated at   0.000000,   0.000000,   0.000000 [a0]

Properties computed using the SCF density matrix

  Nuclear Dipole Moment: [e a0]
     X:     0.0000      Y:     0.0000      Z:     0.0000

  Electronic Dipole Moment: [e a0]
     X:     0.0000      Y:     0.0000      Z:     0.0000

  Dipole Moment: [e a0]
     X:     0.0000      Y:     0.0000      Z:     0.0000     Total:     0.0000

  Dipole Moment: [D]
     X:     0.0000      Y:     0.0000      Z:     0.0000     Total:     0.0000


*** tstop() called on bp1-compute00133.data.bp.acrc.priv at Fri Oct 29 08:21:38 2021
Module time:
	user time   =      31.22 seconds =       0.52 minutes
	system time =       1.15 seconds =       0.02 minutes
	total time  =          2 seconds =       0.03 minutes
Total time:
	user time   =     291.75 seconds =       4.86 minutes
	system time =      19.39 seconds =       0.32 minutes
	total time  =         25 seconds =       0.42 minutes

*** tstart() called on bp1-compute00133.data.bp.acrc.priv
*** at Fri Oct 29 08:21:38 2021


         ------------------------------------------------------------
                                   SCF GRAD                          
                          Rob Parrish, Justin Turney,                
                       Andy Simmonett, and Alex Sokolov              
         ------------------------------------------------------------

  ==> Geometry <==

    Molecular point group: d2h
    Full point group: D_inf_h

    Geometry (in Angstrom), charge = 1, multiplicity = 1:

       Center              X                  Y                   Z               Mass       
    ------------   -----------------  -----------------  -----------------  -----------------
         CU          -0.000000000000     0.000000000000     0.000000000000    62.929597720000
         CU           0.000000000000     0.000000000000     2.423672968082    62.929597720000
         CU           0.000000000000     0.000000000000    -2.423672968082    62.929597720000

  Nuclear repulsion =  459.053304668423038

  ==> Basis Set <==

  Basis Set: DEF2-TZVPPD
    Blend: DEF2-TZVPPD
    Number of shells: 57
    Number of basis function: 201
    Number of Cartesian functions: 249
    Spherical Harmonics?: true
    Max angular momentum: 4

  ==> DFJKGrad: Density-Fitted SCF Gradients <==

    Gradient:                    1
    J tasked:                  Yes
    K tasked:                   No
    wK tasked:                  No
    OpenMP threads:             24
    Integrals threads:          24
    Memory [MiB]:           102996
    Schwarz Cutoff:          0E+00
    Fitting Condition:       1E-10

   => Auxiliary Basis Set <=

  Basis Set: (DEF2-TZVPPD AUX)
    Blend: DEF2-TZVPP-JKFIT
    Number of shells: 174
    Number of basis function: 792
    Number of Cartesian functions: 1131
    Spherical Harmonics?: true
    Max angular momentum: 6

  ==> DFT Potential <==

   => Composite Functional: GAM <= 

   GAM GGA Minessota Exchange-Correlation Functional

    H.S. Yu, et al., Phys. Chem. Chem. Phys. 17, 12146, 2015


    Deriv               =              1
    GGA                 =           TRUE
    Meta                =          FALSE

    Exchange Hybrid     =          FALSE
    MP2 Hybrid          =          FALSE

   => Exchange Functionals <=

    1.0000     XC_GGA_X_GAM

   => Correlation Functionals <=

    1.0000     XC_GGA_C_GAM

   => Molecular Quadrature <=

    Radial Scheme          =       TREUTLER
    Pruning Scheme         =           FLAT
    Nuclear Scheme         =       TREUTLER

    BS radius alpha        =              1
    Pruning alpha          =              1
    Radial Points          =             75
    Spherical Points       =            302
    Total Points           =          67950
    Total Blocks           =            619
    Max Points             =            255
    Max Functions          =            170


  -Total Gradient:
[...]
   @DF-RKS iter   5: -4908.14958234089227   -2.02630e+01   7.48909e-02 DIIS
   @DF-RKS iter   6: -4923.23944746691996   -1.50899e+01   1.98205e-02 DIIS
    Occupation by irrep:
             A1    A2    B1    B2 
    DOCC [    17,    5,    7,   14 ]

   @DF-RKS iter   7: -4924.10136459475052   -8.61917e-01   3.18691e-03 DIIS
    Occupation by irrep:
             A1    A2    B1    B2 
    DOCC [    18,    5,    7,   13 ]

   @DF-RKS iter   8: -4922.36300640705667    1.73836e+00   2.03815e-02 DIIS
   @DF-RKS iter   9: -4924.13010259402563   -1.76710e+00   6.98721e-04 DIIS
   @DF-RKS iter  10: -4924.13339483580785   -3.29224e-03   4.65776e-04 DIIS
   @DF-RKS iter  11: -4924.13397516691566   -5.80331e-04   1.16500e-04 DIIS
   @DF-RKS iter  12: -4924.13399200729327   -1.68404e-05   7.68293e-05 DIIS
   @DF-RKS iter  13: -4924.13400119461221   -9.18732e-06   2.70536e-05 DIIS
   @DF-RKS iter  14: -4924.13400304804782   -1.85344e-06   3.70322e-06 DIIS
   @DF-RKS iter  15: -4924.13400311883834   -7.07905e-08   1.44373e-06 DIIS
   @DF-RKS iter  16: -4924.13400312499107   -6.15273e-09   5.08935e-07 DIIS
   @DF-RKS iter  17: -4924.13400312642716   -1.43609e-09   1.81557e-08 DIIS
   @DF-RKS iter  18: -4924.13400312642625    9.09495e-13   2.54132e-09 DIIS
  Energy and wave function converged.


  ==> Post-Iterations <==

    Orbital Energies [Eh]
    ---------------------

    Doubly Occupied:                                                      

       1B2  -321.084935     1A1  -321.084929     2A1  -321.056028  
       2B2   -38.551046     3A1   -38.551029     4A1   -38.527363  
       5A1   -33.951214     3B2   -33.951213     4B2   -33.949150  
       1A2   -33.949150     6A1   -33.949149     1B1   -33.949149  
       5B2   -33.927099     7A1   -33.924986     2B1   -33.924986  
       6B2    -4.325893     8A1    -4.325881     9A1    -4.297880  
       7B2    -2.865308    10A1    -2.865242    11A1    -2.861492  
       3B1    -2.861492     8B2    -2.861492     2A2    -2.861492  
       9B2    -2.838333    12A1    -2.832176     4B1    -2.832176  
      13A1    -0.440943    10B2    -0.417955     3A2    -0.417955  
      11B2    -0.415715    14A1    -0.412159     5B1    -0.412159  
       6B1    -0.408127    15A1    -0.408116     4A2    -0.407771  
      12B2    -0.407759    16A1    -0.389273    13B2    -0.378259  
       5A2    -0.378259     7B1    -0.376668    17A1    -0.376652  
      18A1    -0.367944  

    Virtual:                                                              

      14B2    -0.348379    19A1    -0.256044     8B1    -0.212312  
      20A1    -0.212312    15B2    -0.182854     6A2    -0.165303  
      16B2    -0.165303    21A1    -0.088867     9B1    -0.088867  
      22A1    -0.069991    23A1    -0.052800    17B2    -0.048029  
      24A1    -0.020210    10B1    -0.020210    11B1    -0.014945  
      25A1    -0.014944    18B2    -0.008412     7A2     0.003859  
      19B2     0.003859    26A1     0.017888     8A2     0.029315  
      20B2     0.029317    27A1     0.044808    12B1     0.044808  
      21B2     0.059314     9A2     0.059314    28A1     0.065176  
      22B2     0.109455    13B1     0.109907    29A1     0.109909  
      23B2     0.131800    30A1     0.163582    14B1     0.163582  
      31A1     0.195256    24B2     0.263059    10A2     0.263059  
      32A1     0.298732    25B2     0.330569    26B2     0.409261  
      33A1     0.461834    15B1     0.461834    11A2     0.481275  
      27B2     0.481275    34A1     0.529251    16B1     0.529251  
      35A1     0.552315    17B1     0.644802    36A1     0.644809  
      28B2     0.660736    12A2     0.660736    13A2     0.673768  
      29B2     0.673775    30B2     0.688957    37A1     0.696673  
      18B1     0.728508    38A1     0.728508    19B1     0.736130  
      39A1     0.736135    31B2     0.897051    14A2     0.897051  
      32B2     0.908031    40A1     1.181301    41A1     2.649470  
      20B1     2.686059    42A1     2.686059    33B2     2.759325  
      34B2     2.761049    15A2     2.761049    43A1     2.805691  
      21B1     2.805691    35B2     2.833430    44A1     2.904060  
      36B2     3.037354    45A1     3.098535    37B2     3.148103  
      16A2     3.148103    22B1     3.152808    46A1     3.152808  
      17A2     3.154718    38B2     3.154745    23B1     3.155546  
      47A1     3.155573    48A1     3.156838    24B1     3.156838  
      39B2     3.156838    18A2     3.156838    49A1     3.177073  
      25B1     3.177073    19A2     3.191243    40B2     3.191287  
      50A1     3.197248    26B1     3.197248    41B2     3.216590  
      51A1     3.235652    27B1     3.350483    52A1     3.350565  
      20A2     3.366271    42B2     3.366347    43B2     3.380916  
      21A2     3.382178    44B2     3.382181    28B1     3.423600  
      53A1     3.423692    54A1     3.455002    29B1     3.455002  
      22A2     3.561987    45B2     3.561987    55A1     3.629217  
      46B2     3.728073    56A1     4.059620    30B1    12.556035  
      57A1    12.556035    23A2    12.556429    47B2    12.556429  
      24A2    12.556448    31B1    12.556470    48B2    12.556972  
      58A1    12.557251    49B2    12.557322    59A1    12.557344  
      60A1    12.558106    32B1    12.558106    50B2    12.558114  
      25A2    12.558114    51B2    12.559157    61A1    12.559157  
      33B1    12.559308    26A2    12.559308    27A2    12.586998  
      52B2    12.586998    34B1    12.587580    62A1    12.588953  
      63A1    12.589377    28A2    12.590764    53B2    12.590764  
      64A1    12.593615    35B1    12.593821    36B1    12.693658  
      65A1    12.693658    29A2    12.693956    54B2    12.694112  
      37B1    12.694601    66A1    12.694756    55B2    12.695878  
      30A2    12.695878    67A1    12.695878    38B1    12.695878  
      56B2    12.701611    31A2    12.701611    57B2    12.707349  
      32A2    12.720586    58B2    12.720788    39B1    12.723404  
      68A1    12.723404    69A1    12.727136    40B1    12.727136  
      70A1    12.748581    59B2    12.783826  

    Final Occupation by Irrep:
             A1    A2    B1    B2 
    DOCC [    18,    5,    7,   13 ]

  @DF-RKS Final Energy: -4924.13400312642625

   => Energetics <=

    Nuclear Repulsion Energy =            458.8053573693937892
    One-Electron Energy =               -7773.6122684906085851
    Two-Electron Energy =                2595.6599657649999244
    DFT Exchange-Correlation Energy =    -204.9870577702119192
    Empirical Dispersion Energy =           0.0000000000000000
    VV10 Nonlocal Energy =                  0.0000000000000000
    Total Energy =                      -4924.1340031264271602

Computation Completed


Properties will be evaluated at   0.000000,   0.000000,   0.000000 [a0]

Properties computed using the SCF density matrix

  Nuclear Dipole Moment: [e a0]
     X:     0.0000      Y:     0.0000      Z:    -0.0000

  Electronic Dipole Moment: [e a0]
     X:     0.0001      Y:     0.0000      Z:     0.0000

  Dipole Moment: [e a0]
     X:     0.0001      Y:     0.0000      Z:    -0.0000     Total:     0.0001

  Dipole Moment: [D]
     X:     0.0002      Y:     0.0000      Z:    -0.0000     Total:     0.0002


*** tstop() called on bp1-compute00133.data.bp.acrc.priv at Fri Oct 29 08:22:39 2021
Module time:
	user time   =      47.52 seconds =       0.79 minutes
	system time =       1.42 seconds =       0.02 minutes
	total time  =          2 seconds =       0.03 minutes
Total time:
	user time   =    1068.35 seconds =      17.81 minutes
	system time =      51.76 seconds =       0.86 minutes
	total time  =         86 seconds =       1.43 minutes

*** tstart() called on bp1-compute00133.data.bp.acrc.priv
*** at Fri Oct 29 08:22:39 2021


         ------------------------------------------------------------
                                   SCF GRAD                          
                          Rob Parrish, Justin Turney,                
                       Andy Simmonett, and Alex Sokolov              
         ------------------------------------------------------------

  ==> Geometry <==

    Molecular point group: c2v
    Full point group: C2v

    Geometry (in Angstrom), charge = 1, multiplicity = 1:

       Center              X                  Y                   Z               Mass       
    ------------   -----------------  -----------------  -----------------  -----------------
         CU          -0.000272331595     0.000000000000     0.000000000000    62.929597720000
         CU           0.000136165798     0.000000000000     2.424982740359    62.929597720000
         CU           0.000136165798     0.000000000000    -2.424982740359    62.929597720000

  Nuclear repulsion =  458.805357369393789

  ==> Basis Set <==

  Basis Set: DEF2-TZVPPD
    Blend: DEF2-TZVPPD
    Number of shells: 57
    Number of basis function: 201
    Number of Cartesian functions: 249
    Spherical Harmonics?: true
    Max angular momentum: 4

  ==> DFJKGrad: Density-Fitted SCF Gradients <==

    Gradient:                    1
    J tasked:                  Yes
    K tasked:                   No
    wK tasked:                  No
    OpenMP threads:             24
    Integrals threads:          24
    Memory [MiB]:           102996
    Schwarz Cutoff:          0E+00
    Fitting Condition:       1E-10

   => Auxiliary Basis Set <=

  Basis Set: (DEF2-TZVPPD AUX)
    Blend: DEF2-TZVPP-JKFIT
    Number of shells: 174
    Number of basis function: 792
    Number of Cartesian functions: 1131
    Spherical Harmonics?: true
    Max angular momentum: 6

  ==> DFT Potential <==

   => Composite Functional: GAM <= 

   GAM GGA Minessota Exchange-Correlation Functional

    H.S. Yu, et al., Phys. Chem. Chem. Phys. 17, 12146, 2015


    Deriv               =              1
    GGA                 =           TRUE
    Meta                =          FALSE

    Exchange Hybrid     =          FALSE
    MP2 Hybrid          =          FALSE

   => Exchange Functionals <=

    1.0000     XC_GGA_X_GAM

   => Correlation Functionals <=

    1.0000     XC_GGA_C_GAM

   => Molecular Quadrature <=

    Radial Scheme          =       TREUTLER
    Pruning Scheme         =           FLAT
    Nuclear Scheme         =       TREUTLER

    BS radius alpha        =              1
    Pruning alpha          =              1
    Radial Points          =             75
    Spherical Points       =            302
    Total Points           =          67950
    Total Blocks           =            623
    Max Points             =            254
    Max Functions          =            170


  -Total Gradient:
     Atom            X                  Y                   Z
    ------   -----------------  -----------------  -----------------
       1        0.000007339677     0.000000000000     0.000000000000
       2       -0.000003614411     0.000000000000    -0.000013264137
       3       -0.000003614411     0.000000000000     0.000013264137


*** tstop() called on bp1-compute00133.data.bp.acrc.priv at Fri Oct 29 08:22:45 2021
Module time:
	user time   =      46.76 seconds =       0.78 minutes
	system time =       2.60 seconds =       0.04 minutes
	total time  =          6 seconds =       0.10 minutes
Total time:
	user time   =    1115.13 seconds =      18.59 minutes
	system time =      54.36 seconds =       0.91 minutes
	total time  =         92 seconds =       1.53 minutes

         ----------------------------------------------------------
                                   FINDIF
                     R. A. King and Jonathon Misiewicz
         ---------------------------------------------------------

  Computing second-derivative from gradients using projected, 
  symmetry-adapted, cartesian coordinates.

  6 gradients passed in, including the reference geometry.
  Generating complete list of displacements from unique ones.

    Operation 3 takes plus displacements of irrep B1u to minus ones.
    Operation 2 takes plus displacements of irrep B2u to minus ones.
    Operation 2 takes plus displacements of irrep B3u to minus ones.

-------------------------------------------------------------


  ==> Harmonic Vibrational Analysis <==

  non-mass-weighted Hessian:       Symmetric? True   Hermitian? True   Lin Dep Dim?  5 (0)
  projection of translations (True) and rotations (True) removed 5 degrees of freedom (5)
  total projector:                 Symmetric? True   Hermitian? True   Lin Dep Dim?  5 (5)
  mass-weighted Hessian:           Symmetric? True   Hermitian? True   Lin Dep Dim?  5 (0)
  pre-proj  low-frequency mode:    0.0000i [cm^-1]
  pre-proj  low-frequency mode:    0.0000i [cm^-1]
  pre-proj  low-frequency mode:    0.0000i [cm^-1]
  pre-proj  low-frequency mode:    0.0000i [cm^-1]
  pre-proj  low-frequency mode:    0.0000i [cm^-1]
  pre-proj  low-frequency mode:    0.0000  [cm^-1]
  pre-proj  low-frequency mode:    0.0000  [cm^-1]
  pre-proj  all modes:['77.1917i' '77.1917i' '0.0000i' '0.0000i' '0.0000i' '0.0000' '0.0000'
 '127.3057' '209.7105']
  projected mass-weighted Hessian: Symmetric? True   Hermitian? True   Lin Dep Dim?  5 (5)
  post-proj low-frequency mode:   77.1917i [cm^-1] (V)
  post-proj low-frequency mode:   77.1917i [cm^-1] (V)
  post-proj low-frequency mode:    0.0000i [cm^-1] (TR)
  post-proj low-frequency mode:    0.0000i [cm^-1] (TR)
  post-proj low-frequency mode:    0.0000i [cm^-1] (TR)
  post-proj low-frequency mode:    0.0000  [cm^-1] (TR)
  post-proj low-frequency mode:    0.0000  [cm^-1] (TR)
  post-proj  all modes:['77.1917i' '77.1917i' '0.0000i' '0.0000i' '0.0000i' '0.0000' '0.0000'
 '127.3057' '209.7105']

  Vibration                       1                   2                   8           
  Freq [cm^-1]                 77.1917i            77.1917i            127.3057       
  Irrep                          B3u                 B2u                  Ag          
  Reduced mass [u]             62.9296             62.9296             62.9296        
  Force const [mDyne/A]        -0.2209             -0.2209              0.6009        
  Turning point v=0 [a0]        0.0000              0.0000              0.1226        
  RMS dev v=0 [a0 u^1/2]        0.0000              0.0000              0.6877        
  Char temp [K]                 0.0000              0.0000             183.1645       
  ----------------------------------------------------------------------------------
      1   CU               0.82  0.00 -0.00   -0.00  0.82 -0.00    0.00  0.00 -0.00   
      2   CU              -0.41 -0.00 -0.00    0.00 -0.41 -0.00    0.00  0.00  0.71   
      3   CU              -0.41  0.00 -0.00   -0.00 -0.41  0.00   -0.00  0.00 -0.71   

  Vibration                       9           
  Freq [cm^-1]                 209.7105       
  Irrep                          B1u          
  Reduced mass [u]             62.9296        
  Force const [mDyne/A]         1.6306        
  Turning point v=0 [a0]        0.0955        
  RMS dev v=0 [a0 u^1/2]        0.5358        
  Char temp [K]                301.7267       
  ----------------------------------------------------------------------------------
      1   CU              -0.00 -0.00  0.82   
      2   CU              -0.00 -0.00 -0.41   
      3   CU               0.00  0.00 -0.41   

  ==> Thermochemistry Components <==

  Entropy, S
    Electronic S            0.000 [cal/(mol K)]        0.000 [J/(mol K)]       0.00000000 [mEh/K] (multiplicity = 1)
    Translational S        41.612 [cal/(mol K)]      174.105 [J/(mol K)]       0.06631321 [mEh/K] (mol. weight = 188.7888 [u], P = 101325.00 [Pa])
    Rotational S           18.725 [cal/(mol K)]       78.344 [J/(mol K)]       0.02983979 [mEh/K] (symmetry no. = 2)
    Vibrational S           5.033 [cal/(mol K)]       21.056 [J/(mol K)]       0.00801987 [mEh/K]
  Total S                  65.369 [cal/(mol K)]      273.506 [J/(mol K)]       0.10417287 [mEh/K]
  Correction S              0.000 [cal/(mol K)]        0.000 [J/(mol K)]       0.00000000 [mEh/K]

  Constant volume heat capacity, Cv
    Electronic Cv           0.000 [cal/(mol K)]        0.000 [J/(mol K)]       0.00000000 [mEh/K]
    Translational Cv        2.981 [cal/(mol K)]       12.472 [J/(mol K)]       0.00475022 [mEh/K]
    Rotational Cv           1.987 [cal/(mol K)]        8.314 [J/(mol K)]       0.00316681 [mEh/K]
    Vibrational Cv          3.752 [cal/(mol K)]       15.698 [J/(mol K)]       0.00597890 [mEh/K]
  Total Cv                  8.720 [cal/(mol K)]       36.484 [J/(mol K)]       0.01389593 [mEh/K]
  Correction Cv             0.000 [cal/(mol K)]        0.000 [J/(mol K)]       0.00000000 [mEh/K]

  Constant pressure heat capacity, Cp
    Electronic Cp           0.000 [cal/(mol K)]        0.000 [J/(mol K)]       0.00000000 [mEh/K]
    Translational Cp        4.968 [cal/(mol K)]       20.786 [J/(mol K)]       0.00791703 [mEh/K]
    Rotational Cp           1.987 [cal/(mol K)]        8.314 [J/(mol K)]       0.00316681 [mEh/K]
    Vibrational Cp          3.752 [cal/(mol K)]       15.698 [J/(mol K)]       0.00597890 [mEh/K]
  Total Cp                 10.707 [cal/(mol K)]       44.798 [J/(mol K)]       0.01706274 [mEh/K]
  Correction Cp             0.000 [cal/(mol K)]        0.000 [J/(mol K)]       0.00000000 [mEh/K]

  ==> Thermochemistry Energy Analysis <==

  Raw electronic energy, E0
  Total E0, Electronic energy at well bottom at 0 [K]                -4924.13400312 [Eh]

  Zero-point energy, ZPE_vib = Sum_i nu_i / 2
    Electronic ZPE          0.000 [kcal/mol]        0.000 [kJ/mol]       0.00000000 [Eh]
    Translational ZPE       0.000 [kcal/mol]        0.000 [kJ/mol]       0.00000000 [Eh]
    Rotational ZPE          0.000 [kcal/mol]        0.000 [kJ/mol]       0.00000000 [Eh]
    Vibrational ZPE         0.482 [kcal/mol]        2.016 [kJ/mol]       0.00076778 [Eh]         168.508 [cm^-1]
  Correction ZPE            0.482 [kcal/mol]        2.016 [kJ/mol]       0.00076778 [Eh]         168.508 [cm^-1]
  Total ZPE, Electronic energy at 0 [K]                              -4924.13323534 [Eh]

  Thermal Energy, E (includes ZPE)
    Electronic E            0.000 [kcal/mol]        0.000 [kJ/mol]       0.00000000 [Eh]
    Translational E         0.889 [kcal/mol]        3.718 [kJ/mol]       0.00141628 [Eh]
    Rotational E            0.592 [kcal/mol]        2.479 [kJ/mol]       0.00094418 [Eh]
    Vibrational E           1.253 [kcal/mol]        5.243 [kJ/mol]       0.00199712 [Eh]
  Correction E              2.734 [kcal/mol]       11.441 [kJ/mol]       0.00435758 [Eh]
  Total E, Electronic energy at  298.15 [K]                          -4924.12964554 [Eh]

  Enthalpy, H_trans = E_trans + k_B * T
    Electronic H            0.000 [kcal/mol]        0.000 [kJ/mol]       0.00000000 [Eh]
    Translational H         1.481 [kcal/mol]        6.197 [kJ/mol]       0.00236046 [Eh]
    Rotational H            0.592 [kcal/mol]        2.479 [kJ/mol]       0.00094418 [Eh]
    Vibrational H           1.253 [kcal/mol]        5.243 [kJ/mol]       0.00199712 [Eh]
  Correction H              3.327 [kcal/mol]       13.920 [kJ/mol]       0.00530176 [Eh]
  Total H, Enthalpy at  298.15 [K]                                   -4924.12870136 [Eh]

  Gibbs free energy, G = H - T * S
    Electronic G            0.000 [kcal/mol]        0.000 [kJ/mol]       0.00000000 [Eh]
    Translational G       -10.925 [kcal/mol]      -45.712 [kJ/mol]      -0.01741082 [Eh]
    Rotational G           -4.990 [kcal/mol]      -20.879 [kJ/mol]      -0.00795255 [Eh]
    Vibrational G          -0.247 [kcal/mol]       -1.034 [kJ/mol]      -0.00039401 [Eh]
  Correction G            -16.163 [kcal/mol]      -67.626 [kJ/mol]      -0.02575738 [Eh]
  Total G, Free enthalpy at  298.15 [K]                              -4924.15976050 [Eh]

    Psi4 stopped on: Friday, 29 October 2021 08:22AM
    Psi4 wall time for execution: 0:01:31.55

*** Psi4 exiting successfully. Buy a developer a beer!
