Optimizer: Optimization complete!
 6 displacements needed.
 1 2 3 4 5 6
Warning: used thermodynamics relations inappropriate for low-frequency modes: ['159.5144' '222.6014' '250.6442']
At level 1: Red. Int., RFO, no backsteps, dynamic trust
At level 1: Red. Int., RFO, no backsteps, dynamic trust
At level 1: Red. Int., RFO, no backsteps, dynamic trust
At level 1: Red. Int., RFO, no backsteps, dynamic trust
At level 1: Red. Int., RFO, no backsteps, dynamic trust
nder, A. Kumar, M. Saitow, X. Wang, B. P. Pritchard,
    P. Verma, H. F. Schaefer III, K. Patkowski, R. A. King, E. F. Valeev,
    F. A. Evangelista, J. M. Turney, T. D. Crawford, and C. D. Sherrill,
    J. Chem. Theory Comput. 13(7) pp 3185--3197 (2017).
    (doi: 10.1021/acs.jctc.7b00174)


                         Additional Contributions by
    P. Kraus, H. Kruse, M. H. Lechner, M. C. Schieber, R. A. Shaw,
    A. Alenaizan, R. Galvelis, Z. L. Glick, S. Lehtola, and J. P. Misiewicz

    -----------------------------------------------------------------------


    Psi4 started on: Friday, 29 October 2021 08:23AM

    Process ID: 114406
    Host:       bp1-compute00092.data.bp.acrc.priv
    PSIDATADIR: /work/zw18965/.conda/envs/p4env/share/psi4
    Memory:     500.0 MiB
    Threads:    24
    
  ==> Input File <==

--------------------------------------------------------------------------
memory 144 GB

molecule {
1 1
Cu       0.000000    1.349261   -0.000000 
Cu       1.168494   -0.674630    0.000000 
Cu      -1.168494   -0.674630   -0.000000 
 }

set dynamic_level 1
set basis Def2-TZVPPD

optimize("GAM")
frequencies("GAM")
--------------------------------------------------------------------------

  Memory set to 134.110 GiB by Python driver.
gradient() will perform analytic gradient computation.

*** tstart() called on bp1-compute00092.data.bp.acrc.priv
*** at Fri Oct 29 08:23:54 2021

   => Loading Basis Set <=

    Name: DEF2-TZVPPD
    Role: ORBITAL
    Keyword: BASIS
    atoms 1-3 entry CU         line  1290 file /work/zw18965/.conda/envs/p4env/share/psi4/basis/def2-tzvppd.gbs 


         ---------------------------------------------------------
                                   SCF
               by Justin Turney, Rob Parrish, Andy Simmonett
                          and Daniel G. A. Smith
                              RKS Reference
                       24 Threads, 137329 MiB Core
         ---------------------------------------------------------

  ==> Geometry <==

    Molecular point group: c2v
    Full point group: C2v

    Geometry (in Angstrom), charge = 1, multiplicity = 1:

       Center              X                  Y                   Z               Mass       
    ------------   -----------------  -----------------  -----------------  -----------------
         CU           0.000000000000     0.000000000000     1.349260666667    62.929597720000
         CU           1.168494000000     0.000000000000    -0.674630333333    62.929597720000
         CU          -1.168494000000    -0.000000000000    -0.674630333333    62.929597720000

  Running in c2v symmetry.

  Rotational constants: A =      0.09810  B =      0.09810  C =      0.04905 [cm^-1]
  Rotational constants: A =   2940.89335  B =   2940.89328  C =   1470.44666 [MHz]
  Nuclear repulsion =  571.296940641642436

  Charge       = 1
  Multiplicity = 1
  Electrons    = 86
  Nalpha       = 43
  Nbeta        = 43

  ==> Algorithm <==

  SCF Algorithm Type is DF.
  DIIS enabled.
  MOM disabled.
  Fractional occupation disabled.
  Guess Type is SAD.
  Energy threshold   = 1.00e-08
  Density threshold  = 1.00e-08
  Integral threshold = 0.00e+00

  ==> Primary Basis <==

  Basis Set: DEF2-TZVPPD
    Blend: DEF2-TZVPPD
    Number of shells: 57
    Number of basis function: 201
    Number of Cartesian functions: 249
    Spherical Harmonics?: true
    Max angular momentum: 4

  ==> DFT Potential <==

   => Composite Functional: GAM <= 

   GAM GGA Minessota Exchange-Correlation Functional

    H.S. Yu, et al., Phys. Chem. Chem. Phys. 17, 12146, 2015


    Deriv               =              1
    GGA                 =           TRUE
    Meta                =          FALSE

    Exchange Hybrid     =          FALSE
    MP2 Hybrid          =          FALSE

   => Exchange Functionals <=

    1.0000     XC_GGA_X_GAM

   => Correlation Functionals <=

    1.0000     XC_GGA_C_GAM

   => Molecular Quadrature <=

    Radial Scheme          =       TREUTLER
    Pruning Scheme         =           FLAT
    Nuclear Scheme         =       TREUTLER

    BS radius alpha        =              1
    Pruning alpha          =              1
    Radial Points          =             75
    Spherical Points       =            302
    Total Points           =          67950
    Total Blocks           =            596
    Max Points             =            254
    Max Functions          =            191

   => Loading Basis Set <=

    Name: (DEF2-TZVPPD AUX)
    Role: JKFIT
    Keyword: DF_BASIS_SCF
    atoms 1-3 entry CU         line  2361 file /work/zw18965/.conda/envs/p4env/share/psi4/basis/def2-tzvpp-jkfit.gbs 

  ==> Pre-Iterations <==

   -------------------------------------------------------
    Irrep   Nso     Nmo     Nalpha   Nbeta   Ndocc  Nsocc
   -------------------------------------------------------
     A1        70      70       0       0       0       0
     A2        32      32       0       0       0       0
     B1        59      59       0       0       0       0
     B2        40      40       0       0       0       0
   -------------------------------------------------------
    Total     201     201      43      43      43       0
   -------------------------------------------------------

  ==> Integral Setup <==

  DFHelper Memory: AOs need 0.246 GiB; user supplied 100.326 GiB. Using in-core AOs.

  ==> MemDFJK: Density-Fitted J/K Matrices <==

    J tasked:                   Yes
    K tasked:                    No
    wK tasked:                   No
    OpenMP threads:              24
    Memory [MiB]:            102733
    Algorithm:                 Core
    Schwarz Cutoff:           1E-12
    Mask sparsity (%):       6.9305
    Fitting Condition:        1E-10

   => Auxiliary Basis Set <=

  Basis Set: (DEF2-TZVPPD AUX)
    Blend: DEF2-TZVPP-JKFIT
    Number of shells: 174
    Number of basis function: 792
    Number of Cartesian functions: 1131
    Spherical Harmonics?: true
    Max angular momentum: 6

  Cached 100.0% of DFT collocation blocks in 0.257 [GiB].

  Minimum eigenvalue in the overlap matrix is 7.6765794614E-04.
  Using Symmetric Orthogonalization.

  SCF Guess: Superposition of Atomic Densities via on-the-fly atomic UHF.

  ==> Iterations <==

                           Total Energy        Delta E     RMS |[F,P]|

   @DF-RKS iter SAD: -4918.04452819781545   -4.91804e+03   0.00000e+00 
    Occupation by irrep:
             A1    A2    B1    B2 
    DOCC [    18,    4,   13,    8 ]

   @DF-RKS iter   1: -4914.30138900757720    3.74314e+00   7.42320e-02 DIIS
    Occupation by irrep:
             A1    A2    B1    B2 
    DOCC [    18,    5,   13,    7 ]

   @DF-RKS iter   2: -4781.59960354224950    1.32702e+02   1.63929e-01 DIIS
    Occupation by irrep:
             A1    A2    B1    B2 
    DOCC [    19,    5,   12,    7 ]

   @DF-RKS iter   3: -4922.23624848826694   -1.40637e+02   2.54172e-02 DIIS
    Occupation by irrep:
             A1    A2    B1    B2 
    DOCC [    18,    5,   13,    7 ]

   @DF-RKS iter   4: -4916.34461679934429    5.89163e+00   5.51316e-02 DIIS
   @DF-RKS iter   5: -4922.31246181376900   -5.96785e+00   2.79686e-02 DIIS
   @DF-RKS iter   6: -4923.69236298179931   -1.37990e+00   1.46864e-02 DIIS
   @DF-RKS iter   7: -4924.15945633819592   -4.67093e-01   3.38104e-03 DIIS
   @DF-RKS iter   8: -4924.15681516036238    2.64118e-03   2.86612e-03 DIIS
   @DF-RKS iter   9: -4924.17943261525761   -2.26175e-02   7.80222e-04 DIIS
   @DF-RKS iter  10: -4924.18050750048860   -1.07489e-03   2.85754e-04 DIIS
   @DF-RKS iter  11: -4924.18070159542913   -1.94095e-04   1.27935e-04 DIIS
   @DF-RKS iter  12: -4924.18073066252146   -2.90671e-05   3.83415e-05 DIIS
   @DF-RKS iter  13: -4924.18073686031494   -6.19779e-06   6.33471e-06 DIIS
   @DF-RKS iter  14: -4924.18073702925358   -1.68939e-07   3.14311e-07 DIIS
   @DF-RKS iter  15: -4924.18073702946822   -2.14641e-10   5.15514e-08 DIIS
   @DF-RKS iter  16: -4924.18073702948186   -1.36424e-11   3.19788e-09 DIIS
  Energy and wave function converged.


  ==> Post-Iterations <==

    Orbital Energies [Eh]
    ---------------------

    Doubly Occupied:                                                      

       1A1  -321.092263     1B1  -321.092258     2A1  -321.092238  
       3A1   -38.562644     2B1   -38.562640     4A1   -38.562585  
       5A1   -33.961797     3B1   -33.961792     6A1   -33.961791  
       4B1   -33.961735     5B1   -33.961726     7A1   -33.961723  
       1B2   -33.959507     1A2   -33.959503     2B2   -33.959501  
       8A1    -4.335085     9A1    -4.334609     6B1    -4.334602  
      10A1    -2.875779    11A1    -2.873520     7B1    -2.873520  
      12A1    -2.871620     8B1    -2.871615     9B1    -2.871297  
       3B2    -2.867982     4B2    -2.867592     2A2    -2.867585  
      13A1    -0.472261    14A1    -0.443528    10B1    -0.443521  
       5B2    -0.440004    15A1    -0.431378     3A2    -0.423685  
       6B2    -0.423659    16A1    -0.409383    17A1    -0.409207  
      11B1    -0.409200    18A1    -0.405196    12B1    -0.405159  
       4A2    -0.404722     5A2    -0.404171     7B2    -0.404126  
      13B1    -0.395778  

    Virtual:                                                              

      19A1    -0.299491    14B1    -0.299488     8B2    -0.233834  
      20A1    -0.194887    15B1    -0.178625    21A1    -0.178623  
       9B2    -0.126188     6A2    -0.126185    16B1    -0.065063  
      22A1    -0.065063    23A1    -0.057639    17B1    -0.049776  
      10B2    -0.033668    24A1    -0.025723    18B1    -0.007140  
      25A1    -0.007139    26A1     0.008557    11B2     0.017270  
       7A2     0.017272     8A2     0.032525    12B2     0.032531  
      27A1     0.041415    19B1     0.041418    20B1     0.058510  
      13B2     0.060632    21B1     0.065522    28A1     0.065524  
      29A1     0.118366    22B1     0.118368     9A2     0.143207  
      30A1     0.157152    31A1     0.176015    23B1     0.176016  
      14B2     0.178703    10A2     0.178705    24B1     0.273843  
      25B1     0.292333    32A1     0.292350    15B2     0.414583  
      33A1     0.425212    26B1     0.470161    34A1     0.470173  
      16B2     0.517696    11A2     0.517700    35A1     0.551803  
      27B1     0.576383    36A1     0.576387    17B2     0.578341  
      18B2     0.611109    12A2     0.611109    37A1     0.690323  
      28B1     0.702550    29B1     0.709652    38A1     0.709656  
      13A2     0.788496    30B1     0.801801    39A1     0.801815  
      14A2     0.847086    19B2     0.847091    31B1     1.017213  
      40A1     1.017293    32B1     1.036211    20B2     2.669877  
      41A1     2.725613    33B1     2.746668    42A1     2.746685  
      21B2     2.778852    15A2     2.778896    43A1     2.799184  
      44A1     2.803261    34B1     2.803271    35B1     2.921184  
      45A1     3.099088    36B1     3.117672    46A1     3.117690  
      22B2     3.127462    16A2     3.130408    23B2     3.130433  
      47A1     3.150370    37B1     3.150384    24B2     3.155024  
      38B1     3.155670    48A1     3.155681    25B2     3.156869  
      17A2     3.156890    39B1     3.159204    18A2     3.159257  
      26B2     3.160044    19A2     3.160099    40B1     3.164260  
      49A1     3.164286    50A1     3.192158    41B1     3.226997  
      42B1     3.279120    51A1     3.279137    20A2     3.375635  
      27B2     3.375645    52A1     3.376711    28B2     3.409319  
      53A1     3.429387    43B1     3.429387    21A2     3.450375  
      22A2     3.503035    29B2     3.503071    54A1     3.637217  
      44B1     3.637252    55A1     3.652122    45B1     3.699661  
      56A1     3.935750    46B1     3.935769    57A1    12.547811  
      58A1    12.548393    47B1    12.548447    48B1    12.548850  
      59A1    12.549972    23A2    12.549992    49B1    12.550014  
      30B2    12.550104    31B2    12.550217    24A2    12.551049  
      32B2    12.551396    25A2    12.551464    60A1    12.552305  
      50B1    12.552612    61A1    12.552630    26A2    12.553112  
      33B2    12.553127    51B1    12.553160    34B2    12.553272  
      62A1    12.553334    52B1    12.553429    27A2    12.554385  
      28A2    12.554420    63A1    12.554467    35B2    12.554467  
      53B1    12.554613    64A1    12.554626    65A1    12.681414  
      66A1    12.682196    54B1    12.682288    29A2    12.682465  
      36B2    12.682478    37B2    12.684466    38B2    12.686008  
      30A2    12.686035    55B1    12.686955    56B1    12.687246  
      67A1    12.687313    39B2    12.688619    31A2    12.693072  
      68A1    12.696825    69A1    12.697727    57B1    12.697728  
      32A2    12.702430    40B2    12.702457    58B1    12.778153  
      70A1    12.783398    59B1    12.783424  

    Final Occupation by Irrep:
             A1    A2    B1    B2 
    DOCC [    18,    5,   13,    7 ]

  @DF-RKS Final Energy: -4924.18073702948186

   => Energetics <=

    Nuclear Repulsion Energy =            571.2969406416424363
    One-Electron Energy =               -7997.0659632642418728
    Two-Electron Energy =                2706.5902168878537850
    DFT Exchange-Correlation Energy =    -205.0019312947360390
    Empirical Dispersion Energy =           0.0000000000000000
    VV10 Nonlocal Energy =                  0.0000000000000000
    Total Energy =                      -4924.1807370294818611

Computation Completed


Properties will be evaluated at   0.000000,   0.000000,   0.000000 [a0]

Properties computed using the SCF density matrix

  Nuclear Dipole Moment: [e a0]
     X:     0.0000      Y:     0.0000      Z:    -0.0000

  Electronic Dipole Moment: [e a0]
     X:     0.0000      Y:     0.0000      Z:     0.0001

  Dipole Moment: [e a0]
     X:     0.0000      Y:     0.0000      Z:     0.0001     Total:     0.0001

  Dipole Moment: [D]
     X:     0.0000      Y:     0.0000      Z:     0.0003     Total:     0.0003


*** tstop() called on bp1-compute00092.data.bp.acrc.priv at Fri Oct 29 08:23:56 2021
Module time:
	user time   =      46.94 seconds =       0.78 minutes
	system time =       1.75 seconds =       0.03 minutes
	total time  =          2 seconds =       0.03 minutes
Total time:
	user time   =      46.94 seconds =       0.78 minutes
	system time =       1.75 seconds =       0.03 minutes
	total time  =          2 seconds =       0.03 minutes

*** tstart() called on bp1-compute00092.data.bp.acrc.priv
*** at Fri Oct 29 08:23:56 2021


         ------------------------------------------------------------
                                   SCF GRAD                          
                          Rob Parrish, Justin Turney,                
                       Andy Simmonett, and Alex Sokolov              
         ------------------------------------------------------------

  ==> Geometry <==

    Molecular point group: c2v
    Full point group: C2v

    Geometry (in Angstrom), charge = 1, multiplicity = 1:

       Center              X                  Y                   Z               Mass       
    ------------   -----------------  -----------------  -----------------  -----------------
         CU           0.000000000000     0.000000000000     1.349260666667    62.929597720000
         CU           1.168494000000     0.000000000000    -0.674630333333    62.929597720000
         CU          -1.168494000000    -0.000000000000    -0.674630333333    62.929597720000

  Nuclear repulsion =  571.296940641642436

  ==> Basis Set <==

  Basis Set: DEF2-TZVPPD
    Blend: DEF2-TZVPPD
    Number of shells: 57
    Number of basis function: 201
    Number of Cartesian functions: 249
    Spherical Harmonics?: true
    Max angular momentum: 4

  ==> DFJKGrad: Density-Fitted SCF Gradients <==

    Gradient:                    1
    J tasked:                  Yes
    K tasked:                   No
    wK tasked:                  No
    OpenMP threads:             24
    Integrals threads:          24
    Memory [MiB]:           102996
    Schwarz Cutoff:          0E+00
    Fitting Condition:       1E-10

   => Auxiliary Basis Set <=

  Basis Set: (DEF2-TZVPPD AUX)
    Blend: DEF2-TZVPP-JKFIT
    Number of shells: 174
    Number of basis function: 792
    Number of Cartesian functions: 1131
    Spherical Harmonics?: true
    Max angular momentum: 6

  ==> DFT Potential <==

   => Composite Functional: GAM <= 

   GAM GGA Minessota Exchange-Correlation Functional

    H.S. Yu, et al., Phys. Chem. Chem. Phys. 17, 12146, 2015


    Deriv               =              1
    GGA                 =           TRUE
    Meta                =          FALSE

    Exchange Hybrid     =          FALSE
    MP2 Hybrid          =          FALSE

   => Exchange Functionals <=

    1.0000     XC_GGA_X_GAM

   => Correlation Functionals <=

    1.0000     XC_GGA_C_GAM

   => Molecular Quadrature <=

    Radial Scheme          =       TREUTLER
    Pruning Scheme         =           FLAT
    Nuclear Scheme         =       TREUTLER

    BS radius alpha        =              1
    Pruning alpha          =              1
    Radial Points          =             75
    Spherical Points       =            302
    Total Points           =          67950
    Total Blocks           =            596
    Max Points             =            254
    Max Functions          =            191


  -Total Gradient:
     Atom            X                  Y                   Z
    ------   -----------------  -----------------  -----------------
       1        0.000000000000    -0.000000000000    -0.015802456982
       2       -0.013564386113    -0.000000000000     0.007940058075
       3        0.013564386113     0.000000000000     0.007940058075


*** tstop() called on bp1-compute00092.data.bp.acrc.priv at Fri Oct 29 08:24:02 2021
Module time:
	user time   =      50.75 seconds =       0.85 minutes
	system time =       2.93 seconds =       0.05 minutes
	total time  =          6 seconds =       0.10 minutes
Total time:
	user time   =      97.71 seconds =       1.63 minutes
	system time =       4.68 seconds =       0.08 minutes
	total time  =          8 seconds =       0.13 minutes

			-----------------------------------------
			 OPTKING 2.0: for geometry optimizations 
			  - R.A. King,  Bethel University        
			-----------------------------------------
	At level 1: Red. Int., RFO, no backsteps, dynamic trust

	Internal coordinates to be generated automatically.
	Detected frag 1 with atoms:  1 2 3
	---Fragment 1 Bond Connectivity---
	 1 : 2 3
	 2 : 1 3
	 3 : 1 2

	---Fragment 1 Geometry and Gradient---
	 CU          0.0000000000        0.0000000000        2.5497331319
	 CU          2.2081336392        0.0000000000       -1.2748665659
	 CU         -2.2081336392       -0.0000000000       -1.2748665659
	             0.0000000000       -0.0000000000       -0.0158024570
	            -0.0135643861       -0.0000000000        0.0079400581
	             0.0135643861        0.0000000000        0.0079400581

	Previous optimization step data not found.  Starting new optimization.

	---Fragment 1 Intrafragment Coordinates---
	 - Coordinate -           - BOHR/RAD -       - ANG/DEG -
	 R(1,2)           =         4.416267	       2.336988
	 R(1,3)           =         4.416267	       2.336988
	 R(2,3)           =         4.416267	       2.336988
	 B(1,2,3)         =         1.047198	      60.000000
	 B(1,3,2)         =         1.047198	      60.000000
	 B(2,1,3)         =         1.047198	      59.999999

	Current energy   :     -4924.1807370295

	Generating empirical Hessian (Schlegel '84) for each fragment.
	Taking RFO optimization step.
	Going to follow RFO solution 1.
	Using RFO vector 1.
	Norm of target step-size    0.11600
	Projected energy change by RFO approximation:        -0.0018084239

	Back-transformation to cartesian coordinates...
	Successfully converged to displaced geometry.

	--- Internal Coordinate Step in ANG or DEG, aJ/ANG or AJ/DEG ---
	 ---------------------------------------------------------------------------
	   Coordinate                Previous        Force       Change         New 
	   ----------                --------       ------       ------       ------
	    1 R(1,2)          =      2.336988     0.075237     0.035586     2.372574
	    2 R(1,3)          =      2.336988     0.075237     0.035586     2.372574
	    3 R(2,3)          =      2.336988     0.074213     0.035151     2.372139
	    4 B(1,2,3)        =     60.000000     0.000001     0.006074    60.006075
	    5 B(1,3,2)        =     60.000000     0.000001     0.006074    60.006075
	    6 B(2,1,3)        =     59.999999    -0.000002    -0.012149    59.987851
	 ---------------------------------------------------------------------------
	Successfully symmetrized geometry.

  ==> Convergence Check <==

  Measures of convergence in internal coordinates in au.
  Criteria marked as inactive (o), active & met (*), and active & unmet ( ).
  --------------------------------------------------------------------------------------------- ~
   Step     Total Energy     Delta E     MAX Force     RMS Force      MAX Disp      RMS Disp    ~
  --------------------------------------------------------------------------------------------- ~
    Convergence Criteria    1.00e-06 *    3.00e-04 *             o    1.20e-03 *             o  ~
  --------------------------------------------------------------------------------------------- ~
      1   -4924.18073703   -4.92e+03      9.13e-03      6.43e-03 o    6.72e-02      4.74e-02 o  ~
  ---------------------------------------------------------------------------------------------

	Writing optimization data to binary file.
	Structure for next step:
	Cartesian Geometry (in Angstrom)
	   CU     0.0000000000   0.0000000000   1.3698903329
	   CU     1.1860693675   0.0000000000  -0.6849451665
	   CU    -1.1860693675  -0.0000000000  -0.6849451665
			--------------------------
			 OPTKING Finished Execution 
			--------------------------

    Structure for next step:
    Molecular point group: c2v
    Full point group: C2v

    Geometry (in Angstrom), charge = 1, multiplicity = 1:

    CU           0.000000000000     0.000000000000     1.369890338315
    CU           1.186069372170     0.000000000000    -0.684945169158
    CU          -1.186069372170    -0.000000000000    -0.684945169158

gradient() will perform analytic gradient computation.

*** tstart() called on bp1-compute00092.data.bp.acrc.priv
*** at Fri Oct 29 08:24:02 2021

   => Loading Basis Set <=

    Name: DEF2-TZVPPD
    Role: ORBITAL
    Keyword: BASIS
    atoms 1-3 entry CU         line  1290 file /work/zw18965/.conda/envs/p4env/share/psi4/basis/def2-tzvppd.gbs 


         ---------------------------------------------------------
                                   SCF
               by Justin Turney, Rob Parrish, Andy Simmonett
                          and Daniel G. A. Smith
                              RKS Reference
                       24 Threads, 137329 MiB Core
         ---------------------------------------------------------

  ==> Geometry <==

    Molecular point group: c2v
    Full point group: C2v

    Geometry (in Angstrom), charge = 1, multiplicity = 1:

       Center              X                  Y                   Z               Mass       
    ------------   -----------------  -----------------  -----------------  -----------------
         CU           0.000000000000     0.000000000000     1.369890338315    62.929597720000
         CU           1.186069372170     0.000000000000    -0.684945169158    62.929597720000
         CU          -1.186069372170    -0.000000000000    -0.684945169158    62.929597720000

  Running in c2v symmetry.

  Rotational constants: A =      0.09521  B =      0.09517  C =      0.04759 [cm^-1]
  Rotational constants: A =   2854.38181  B =   2852.98429  C =   1426.84144 [MHz]
  Nuclear repulsion =  562.762464903988189

  Charge       = 1
  Multiplicity = 1
  Electrons    = 86
  Nalpha       = 43
  Nbeta        = 43

  ==> Algorithm <==

  SCF Algorithm Type is DF.
  DIIS enabled.
  MOM disabled.
  Fractional occupation disabled.
  Guess Type is READ.
  Energy threshold   = 1.00e-08
  Density threshold  = 1.00e-08
  Integral threshold = 0.00e+00

  ==> Primary Basis <==

  Basis Set: DEF2-TZVPPD
    Blend: DEF2-TZVPPD
    Number of shells: 57
    Number of basis function: 201
    Number of Cartesian functions: 249
    Spherical Harmonics?: true
    Max angular momentum: 4

  ==> DFT Potential <==

   => Composite Functional: GAM <= 

   GAM GGA Minessota Exchange-Correlation Functional

    H.S. Yu, et al., Phys. Chem. Chem. Phys. 17, 12146, 2015


    Deriv               =              1
    GGA                 =           TRUE
    Meta                =          FALSE

    Exchange Hybrid     =          FALSE
    MP2 Hybrid          =          FALSE

   => Exchange Functionals <=

    1.0000     XC_GGA_X_GAM

   => Correlation Functionals <=

    1.0000     XC_GGA_C_GAM

   => Molecular Quadrature <=

    Radial Scheme          =       TREUTLER
    Pruning Scheme         =           FLAT
    Nuclear Scheme         =       TREUTLER

    BS radius alpha        =              1
    Pruning alpha          =              1
    Radial Points          =             75
    Spherical Points       =            302
    Total Points           =          67950
    Total Blocks           =            595
    Max Points             =            255
    Max Functions          =            191

   => Loading Basis Set <=

    Name: (DEF2-TZVPPD AUX)
    Role: JKFIT
    Keyword: DF_BASIS_SCF
    atoms 1-3 entry CU         line  2361 file /work/zw18965/.conda/envs/p4env/share/psi4/basis/def2-tzvpp-jkfit.gbs 

   => Loading Basis Set <=

    Name: DEF2-TZVPPD
    Role: ORBITAL
    Keyword: BASIS
    atoms 1-3 entry CU         line  1290 file /work/zw18965/.conda/envs/p4env/share/psi4/basis/def2-tzvppd.gbs 

  Reading orbitals from file 180, no projection.

  ==> Pre-Iterations <==

   -------------------------------------------------------
    Irrep   Nso     Nmo     Nalpha   Nbeta   Ndocc  Nsocc
   -------------------------------------------------------
     A1        70      70       0       0       0       0
     A2        32      32       0       0       0       0
     B1        59      59       0       0       0       0
     B2        40      40       0       0       0       0
   -------------------------------------------------------
    Total     201     201      43      43      43       0
   -------------------------------------------------------

  ==> Integral Setup <==

  DFHelper Memory: AOs need 0.244 GiB; user supplied 100.326 GiB. Using in-core AOs.

  ==> MemDFJK: Density-Fitted J/K Matrices <==

    J tasked:                   Yes
    K tasked:                    No
    wK tasked:                   No
    OpenMP threads:              24
    Memory [MiB]:            102734
    Algorithm:                 Core
    Schwarz Cutoff:           1E-12
    Mask sparsity (%):       7.4058
    Fitting Condition:        1E-10

   => Auxiliary Basis Set <=

  Basis Set: (DEF2-TZVPPD AUX)
    Blend: DEF2-TZVPP-JKFIT
    Number of shells: 174
    Number of basis function: 792
    Number of Cartesian functions: 1131
    Spherical Harmonics?: true
    Max angular momentum: 6

  Cached 100.0% of DFT collocation blocks in 0.257 [GiB].

  Minimum eigenvalue in the overlap matrix is 8.0666372379E-04.
  Using Symmetric Orthogonalization.

  SCF Guess: Orbitals guess was supplied from a previous computation.

  ==> Iterations <==

                           Total Energy        Delta E     RMS |[F,P]|

   @DF-RKS iter   0: -4924.18958014598684   -4.92419e+03   1.38231e-03 
   @DF-RKS iter   1: -4924.18217287691004    7.40727e-03   5.40510e-05 DIIS
   @DF-RKS iter   2: -4924.18209947726336    7.33996e-05   2.09803e-04 DIIS
   @DF-RKS iter   3: -4924.18218420688390   -8.47296e-05   3.27706e-05 DIIS
   @DF-RKS iter   4: -4924.18218763936602   -3.43248e-06   1.48423e-05 DIIS
   @DF-RKS iter   5: -4924.18218811178849   -4.72422e-07   2.50460e-06 DIIS
   @DF-RKS iter   6: -4924.18218812358646   -1.17980e-08   9.44412e-07 DIIS
   @DF-RKS iter   7: -4924.18218812565647   -2.07001e-09   3.80284e-08 DIIS
   @DF-RKS iter   8: -4924.18218812566192   -5.45697e-12   9.21089e-09 DIIS
  Energy and wave function converged.


  ==> Post-Iterations <==

    Orbital Energies [Eh]
    ---------------------

    Doubly Occupied:                                                      

       1A1  -321.090512     1B1  -321.090510     2A1  -321.090489  
       2B1   -38.560631     3A1   -38.560630     4A1   -38.560573  
       3B1   -33.959766     5A1   -33.959765     6A1   -33.959762  
       4B1   -33.959746     5B1   -33.959740     7A1   -33.959740  
       1A2   -33.957564     1B2   -33.957563     2B2   -33.957561  
       8A1    -4.333036     9A1    -4.332649     6B1    -4.332646  
      10A1    -2.873265    11A1    -2.871354     7B1    -2.871350  
      12A1    -2.869733     8B1    -2.869729     9B1    -2.869466  
       3B2    -2.866126     4B2    -2.865800     2A2    -2.865794  
      13A1    -0.467596    14A1    -0.440044    10B1    -0.440015  
       5B2    -0.436309    15A1    -0.428492     3A2    -0.421248  
       6B2    -0.421234    16A1    -0.407837    11B1    -0.407820  
      17A1    -0.407212    18A1    -0.403993    12B1    -0.403950  
       4A2    -0.403673     5A2    -0.403049     7B2    -0.403008  
      13B1    -0.395301  

    Virtual:                                                              

      19A1    -0.299386    14B1    -0.299365     8B2    -0.232348  
      20A1    -0.195049    21A1    -0.179179    15B1    -0.179172  
       9B2    -0.126880     6A2    -0.126857    22A1    -0.065310  
      16B1    -0.065304    23A1    -0.057434    17B1    -0.051374  
      10B2    -0.033060    24A1    -0.025513    25A1    -0.007128  
      18B1    -0.007125    26A1     0.007743    11B2     0.017158  
       7A2     0.017170     8A2     0.031769    12B2     0.031777  
      27A1     0.040376    19B1     0.040397    20B1     0.057457  
      13B2     0.059591    28A1     0.064438    21B1     0.064450  
      29A1     0.116804    22B1     0.116811     9A2     0.141854  
      30A1     0.157765    31A1     0.175229    23B1     0.175237  
      14B2     0.177553    10A2     0.177573    24B1     0.271647  
      32A1     0.287269    25B1     0.287299    15B2     0.421304  
      33A1     0.425703    34A1     0.469488    26B1     0.469509  
      16B2     0.516381    11A2     0.516416    35A1     0.554246  
      36A1     0.574861    27B1     0.574866    17B2     0.576464  
      18B2     0.612919    12A2     0.612964    37A1     0.689929  
      28B1     0.696105    29B1     0.704441    38A1     0.704484  
      13A2     0.784710    39A1     0.796518    30B1     0.796561  
      19B2     0.842359    14A2     0.842413    40A1     1.006476  
      31B1     1.006479    32B1     1.029681    20B2     2.670637  
      41A1     2.717270    33B1     2.737438    42A1     2.737531  
      43A1     2.777693    21B2     2.778765    15A2     2.778834  
      34B1     2.822634    44A1     2.822761    35B1     2.927801  
      45A1     3.105120    46A1     3.111248    36B1     3.111278  
      22B2     3.130307    23B2     3.134381    16A2     3.134389  
      47A1     3.153486    37B1     3.153508    48A1     3.156866  
      38B1     3.156892    24B2     3.156926    25B2     3.158290  
      17A2     3.158305    18A2     3.159838    39B1     3.159961  
      26B2     3.160730    19A2     3.160785    40B1     3.166025  
      49A1     3.166055    50A1     3.194507    41B1     3.210324  
      51A1     3.268909    42B1     3.268982    20A2     3.372439  
      27B2     3.372472    52A1     3.372538    28B2     3.398814  
      53A1     3.427605    43B1     3.427629    21A2     3.448992  
      22A2     3.500268    29B2     3.500282    54A1     3.619063  
      44B1     3.625444    55A1     3.625558    45B1     3.695116  
      46B1     3.906792    56A1     3.906813    57A1    12.549881  
      58A1    12.550374    47B1    12.550418    48B1    12.550909  
      59A1    12.551866    49B1    12.551897    23A2    12.551967  
      30B2    12.552057    31B2    12.552148    24A2    12.552953  
      32B2    12.553258    25A2    12.553302    60A1    12.554167  
      50B1    12.554456    61A1    12.554487    26A2    12.554886  
      33B2    12.554909    51B1    12.554942    34B2    12.555081  
      62A1    12.555114    52B1    12.555188    27A2    12.556060  
      28A2    12.556106    35B2    12.556146    63A1    12.556154  
      53B1    12.556296    64A1    12.556305    65A1    12.684428  
      29A2    12.685161    36B2    12.685162    66A1    12.685602  
      54B1    12.685679    37B2    12.686629    38B2    12.687825  
      30A2    12.687844    55B1    12.688578    56B1    12.690089  
      67A1    12.690115    39B2    12.690680    31A2    12.693230  
      68A1    12.697009    57B1    12.697043    69A1    12.699438  
      40B2    12.701488    32A2    12.701491    58B1    12.766759  
      70A1    12.771098    59B1    12.771215  

    Final Occupation by Irrep:
             A1    A2    B1    B2 
    DOCC [    18,    5,   13,    7 ]

  @DF-RKS Final Energy: -4924.18218812566192

   => Energetics <=

    Nuclear Repulsion Energy =            562.7624649039881888
    One-Electron Energy =               -7980.1778434841335184
    Two-Electron Energy =                2698.2292514036294051
    DFT Exchange-Correlation Energy =    -204.9960609491452885
    Empirical Dispersion Energy =           0.0000000000000000
    VV10 Nonlocal Energy =                  0.0000000000000000
    Total Energy =                      -4924.1821881256610141

Computation Completed


Properties will be evaluated at   0.000000,   0.000000,   0.000000 [a0]

Properties computed using the SCF density matrix

  Nuclear Dipole Moment: [e a0]
     X:     0.0000      Y:    -0.0000      Z:    -0.0000

  Electronic Dipole Moment: [e a0]
     X:     0.0000      Y:     0.0000      Z:     0.0003

  Dipole Moment: [e a0]
     X:     0.0000      Y:    -0.0000      Z:     0.0003     Total:     0.0003

  Dipole Moment: [D]
     X:     0.0000      Y:    -0.0000      Z:     0.0008     Total:     0.0008


*** tstop() called on bp1-compute00092.data.bp.acrc.priv at Fri Oct 29 08:24:04 2021
Module time:
	user time   =      31.72 seconds =       0.53 minutes
	system time =       1.31 seconds =       0.02 minutes
	total time  =          2 seconds =       0.03 minutes
Total time:
	user time   =     130.38 seconds =       2.17 minutes
	system time =       6.05 seconds =       0.10 minutes
	total time  =         10 seconds =       0.17 minutes

*** tstart() called on bp1-compute00092.data.bp.acrc.priv
*** at Fri Oct 29 08:24:04 2021


         ------------------------------------------------------------
                                   SCF GRAD                          
                          Rob Parrish, Justin Turney,                
                       Andy Simmonett, and Alex Sokolov              
         ------------------------------------------------------------

  ==> Geometry <==

    Molecular point group: c2v
    Full point group: C2v

    Geometry (in Angstrom), charge = 1, multiplicity = 1:

       Center              X                  Y                   Z               Mass       
    ------------   -----------------  -----------------  -----------------  -----------------
         CU           0.000000000000     0.000000000000     1.369890338315    62.929597720000
         CU           1.186069372170     0.000000000000    -0.684945169158    62.929597720000
         CU          -1.186069372170    -0.000000000000    -0.684945169158    62.929597720000

  Nuclear repulsion =  562.762464903988189

  ==> Basis Set <==

  Basis Set: DEF2-TZVPPD
    Blend: DEF2-TZVPPD
    Number of shells: 57
    Number of basis function: 201
    Number of Cartesian functions: 249
    Spherical Harmonics?: true
    Max angular momentum: 4

  ==> DFJKGrad: Density-Fitted SCF Gradients <==

    Gradient:                    1
    J tasked:                  Yes
    K tasked:                   No
    wK tasked:                  No
    OpenMP threads:             24
    Integrals threads:          24
    Memory [MiB]:           102996
    Schwarz Cutoff:          0E+00
    Fitting Condition:       1E-10

   => Auxiliary Basis Set <=

  Basis Set: (DEF2-TZVPPD AUX)
    Blend: DEF2-TZVPP-JKFIT
    Number of shells: 174
    Number of basis function: 792
    Number of Cartesian functions: 1131
    Spherical Harmonics?: true
    Max angular momentum: 6

  ==> DFT Potential <==

   => Composite Functional: GAM <= 

   GAM GGA Minessota Exchange-Correlation Functional

    H.S. Yu, et al., Phys. Chem. Chem. Phys. 17, 12146, 2015


    Deriv               =              1
    GGA                 =           TRUE
    Meta                =          FALSE

    Exchange Hybrid     =          FALSE
    MP2 Hybrid          =          FALSE

   => Exchange Functionals <=

    1.0000     XC_GGA_X_GAM

   => Correlation Functionals <=

    1.0000     XC_GGA_C_GAM

   => Molecular Quadrature <=

    Radial Scheme          =       TREUTLER
    Pruning Scheme         =           FLAT
    Nuclear Scheme         =       TREUTLER

    BS radius alpha        =              1
    Pruning alpha          =              1
    Radial Points          =             75
    Spherical Points       =            302
    Total Points           =          67950
    Total Blocks           =            595
    Max Points             =            255
    Max Functions          =            191


  -Total Gradient:
     Atom            X                  Y                   Z
    ------   -----------------  -----------------  -----------------
       1        0.000000000000    -0.000000000000    -0.009371717539
       2       -0.008027350728    -0.000000000000     0.004716792821
       3        0.008027350728     0.000000000000     0.004716792821


*** tstop() called on bp1-compute00092.data.bp.acrc.priv at Fri Oct 29 08:24:10 2021
Module time:
	user time   =      48.56 seconds =       0.81 minutes
	system time =       2.90 seconds =       0.05 minutes
	total time  =          6 seconds =       0.10 minutes
Total time:
	user time   =     178.96 seconds =       2.98 minutes
	system time =       8.95 seconds =       0.15 minutes
	total time  =         16 seconds =       0.27 minutes

			-----------------------------------------
			 OPTKING 2.0: for geometry optimizations 
			  - R.A. King,  Bethel University        
			-----------------------------------------
	At level 1: Red. Int., RFO, no backsteps, dynamic trust

	Previous internal coordinate definitions found.
	---Fragment 1 Geometry and Gradient---
	 CU          0.0000000000        0.0000000000        2.5887175613
	 CU          2.2413462792        0.0000000000       -1.2943587807
	 CU         -2.2413462792       -0.0000000000       -1.2943587807
	             0.0000000000       -0.0000000000       -0.0093717175
	            -0.0080273507       -0.0000000000        0.0047167928
	             0.0080273507        0.0000000000        0.0047167928

	---Fragment 1 Intrafragment Coordinates---
	 - Coordinate -           - BOHR/RAD -       - ANG/DEG -
	 R(1,2)           =         4.483516	       2.372574
	 R(1,3)           =         4.483516	       2.372574
	 R(2,3)           =         4.482693	       2.372139
	 B(1,2,3)         =         1.047304	      60.006075
	 B(1,3,2)         =         1.047304	      60.006075
	 B(2,1,3)         =         1.046986	      59.987851

	Current energy   :     -4924.1821881257

	Energy change for the previous step:
		Projected    :        -0.0018084239
		Actual       :        -0.0014510962
	Energy ratio indicates good step: Trust radius increased to 1.000e+00.


	Performing BFGS update.
	Previous computed or guess Hessian on step 1.
	Steps to be used in Hessian update: 1
	Taking RFO optimization step.
	Going to follow RFO solution 1.
	Using RFO vector 1.
	Norm of target step-size    0.16419
	Projected energy change by RFO approximation:        -0.0015067327

	Back-transformation to cartesian coordinates...
	Successfully converged to displaced geometry.

	--- Internal Coordinate Step in ANG or DEG, aJ/ANG or AJ/DEG ---
	 ---------------------------------------------------------------------------
	   Coordinate                Previous        Force       Change         New 
	   ----------                --------       ------       ------       ------
	    1 R(1,2)          =      2.372574     0.044636     0.050421     2.422995
	    2 R(1,3)          =      2.372574     0.044636     0.050421     2.422995
	    3 R(2,3)          =      2.372139     0.043877     0.049646     2.421785
	    4 B(1,2,3)        =     60.006075     0.000001     0.010446    60.016520
	    5 B(1,3,2)        =     60.006075     0.000001     0.010446    60.016520
	    6 B(2,1,3)        =     59.987851    -0.000002    -0.020892    59.966959
	 ---------------------------------------------------------------------------
	Successfully symmetrized geometry.

  ==> Convergence Check <==

  Measures of convergence in internal coordinates in au.
  Criteria marked as inactive (o), active & met (*), and active & unmet ( ).
  ---------------------------------------------------------------------------------------------
   Step     Total Energy     Delta E     MAX Force     RMS Force      MAX Disp      RMS Disp   
  ---------------------------------------------------------------------------------------------
    Convergence Criteria    1.00e-06 *    3.00e-04 *             o    1.20e-03 *             o
  ---------------------------------------------------------------------------------------------
      2   -4924.18218813   -1.45e-03      5.42e-03      3.81e-03 o    9.53e-02      6.70e-02 o  ~
  ---------------------------------------------------------------------------------------------

	Writing optimization data to binary file.
	Structure for next step:
	Cartesian Geometry (in Angstrom)
	   CU     0.0000000000   0.0000000000   1.3991498273
	   CU     1.2108925760   0.0000000000  -0.6995749136
	   CU    -1.2108925760  -0.0000000000  -0.6995749136
			--------------------------
			 OPTKING Finished Execution 
			--------------------------

    Structure for next step:
    Molecular point group: c2v
    Full point group: C2v

    Geometry (in Angstrom), charge = 1, multiplicity = 1:

    CU           0.000000000000     0.000000000000     1.399149832775
    CU           1.210892580753     0.000000000000    -0.699574916387
    CU          -1.210892580753    -0.000000000000    -0.699574916387

gradient() will perform analytic gradient computation.

*** tstart() called on bp1-compute00092.data.bp.acrc.priv
*** at Fri Oct 29 08:24:10 2021

   => Loading Basis Set <=

    Name: DEF2-TZVPPD
    Role: ORBITAL
    Keyword: BASIS
    atoms 1-3 entry CU         line  1290 file /work/zw18965/.conda/envs/p4env/share/psi4/basis/def2-tzvppd.gbs 


         ---------------------------------------------------------
                                   SCF
               by Justin Turney, Rob Parrish, Andy Simmonett
                          and Daniel G. A. Smith
                              RKS Reference
                       24 Threads, 137329 MiB Core
         ---------------------------------------------------------

  ==> Geometry <==

    Molecular point group: c2v
    Full point group: C2v

    Geometry (in Angstrom), charge = 1, multiplicity = 1:

       Center              X                  Y                   Z               Mass       
    ------------   -----------------  -----------------  -----------------  -----------------
         CU           0.000000000000     0.000000000000     1.399149832775    62.929597720000
         CU           1.210892580753     0.000000000000    -0.699574916387    62.929597720000
         CU          -1.210892580753    -0.000000000000    -0.699574916387    62.929597720000

  Running in c2v symmetry.

  Rotational constants: A =      0.09135  B =      0.09123  C =      0.04564 [cm^-1]
  Rotational constants: A =   2738.55213  B =   2734.90682  C =   1368.36413 [MHz]
  Nuclear repulsion =  551.109805487939752

  Charge       = 1
  Multiplicity = 1
  Electrons    = 86
  Nalpha       = 43
  Nbeta        = 43

  ==> Algorithm <==

  SCF Algorithm Type is DF.
  DIIS enabled.
  MOM disabled.
  Fractional occupation disabled.
  Guess Type is READ.
  Energy threshold   = 1.00e-08
  Density threshold  = 1.00e-08
  Integral threshold = 0.00e+00

  ==> Primary Basis <==

  Basis Set: DEF2-TZVPPD
    Blend: DEF2-TZVPPD
    Number of shells: 57
    Number of basis function: 201
    Number of Cartesian functions: 249
    Spherical Harmonics?: true
    Max angular momentum: 4

  ==> DFT Potential <==

   => Composite Functional: GAM <= 

   GAM GGA Minessota Exchange-Correlation Functional

    H.S. Yu, et al., Phys. Chem. Chem. Phys. 17, 12146, 2015


    Deriv               =              1
    GGA                 =           TRUE
    Meta                =          FALSE

    Exchange Hybrid     =          FALSE
    MP2 Hybrid          =          FALSE

   => Exchange Functionals <=

    1.0000     XC_GGA_X_GAM

   => Correlation Functionals <=

    1.0000     XC_GGA_C_GAM

   => Molecular Quadrature <=

    Radial Scheme          =       TREUTLER
    Pruning Scheme         =           FLAT
    Nuclear Scheme         =       TREUTLER

    BS radius alpha        =              1
    Pruning alpha          =              1
    Radial Points          =             75
    Spherical Points       =            302
    Total Points           =          67950
    Total Blocks           =            593
    Max Points             =            256
    Max Functions          =            191

   => Loading Basis Set <=

    Name: (DEF2-TZVPPD AUX)
    Role: JKFIT
    Keyword: DF_BASIS_SCF
    atoms 1-3 entry CU         line  2361 file /work/zw18965/.conda/envs/p4env/share/psi4/basis/def2-tzvpp-jkfit.gbs 

   => Loading Basis Set <=

    Name: DEF2-TZVPPD
    Role: ORBITAL
    Keyword: BASIS
    atoms 1-3 entry CU         line  1290 file /work/zw18965/.conda/envs/p4env/share/psi4/basis/def2-tzvppd.gbs 

  Reading orbitals from file 180, no projection.

  ==> Pre-Iterations <==

   -------------------------------------------------------
    Irrep   Nso     Nmo     Nalpha   Nbeta   Ndocc  Nsocc
   -------------------------------------------------------
     A1        70      70       0       0       0       0
     A2        32      32       0       0       0       0
     B1        59      59       0       0       0       0
     B2        40      40       0       0       0       0
   -------------------------------------------------------
    Total     201     201      43      43      43       0
   -------------------------------------------------------

  ==> Integral Setup <==

  DFHelper Memory: AOs need 0.243 GiB; user supplied 100.327 GiB. Using in-core AOs.

  ==> MemDFJK: Density-Fitted J/K Matrices <==

    J tasked:                   Yes
    K tasked:                    No
    wK tasked:                   No
    OpenMP threads:              24
    Memory [MiB]:            102734
    Algorithm:                 Core
    Schwarz Cutoff:           1E-12
    Mask sparsity (%):       7.9255
    Fitting Condition:        1E-10

   => Auxiliary Basis Set <=

  Basis Set: (DEF2-TZVPPD AUX)
    Blend: DEF2-TZVPP-JKFIT
    Number of shells: 174
    Number of basis function: 792
    Number of Cartesian functions: 1131
    Spherical Harmonics?: true
    Max angular momentum: 6

  Cached 100.0% of DFT collocation blocks in 0.256 [GiB].

  Minimum eigenvalue in the overlap matrix is 8.6480815316E-04.
  Using Symmetric Orthogonalization.

  SCF Guess: Orbitals guess was supplied from a previous computation.

  ==> Iterations <==

                           Total Energy        Delta E     RMS |[F,P]|

   @DF-RKS iter   0: -4924.19164980532332   -4.92419e+03   1.82592e-03 
   @DF-RKS iter   1: -4924.18301388305190    8.63592e-03   1.03824e-04 DIIS
   @DF-RKS iter   2: -4924.18274852917511    2.65354e-04   3.98167e-04 DIIS
   @DF-RKS iter   3: -4924.18305092009177   -3.02391e-04   5.22712e-05 DIIS
   @DF-RKS iter   4: -4924.18306005848717   -9.13840e-06   2.30155e-05 DIIS
   @DF-RKS iter   5: -4924.18306117651173   -1.11802e-06   5.20170e-06 DIIS
   @DF-RKS iter   6: -4924.18306123211551   -5.56038e-08   1.15017e-06 DIIS
   @DF-RKS iter   7: -4924.18306123539151   -3.27600e-09   6.33277e-08 DIIS
   @DF-RKS iter   8: -4924.18306123539696   -5.45697e-12   5.26398e-08 DIIS
   @DF-RKS iter   9: -4924.18306123541242   -1.54614e-11   9.15913e-09 DIIS
  Energy and wave function converged.


  ==> Post-Iterations <==

    Orbital Energies [Eh]
    ---------------------

    Doubly Occupied:                                                      

       1B1  -321.088122     1A1  -321.088118     2A1  -321.088098  
       2B1   -38.557892     3A1   -38.557883     4A1   -38.557829  
       3B1   -33.957038     5A1   -33.957034     4B1   -33.957023  
       5B1   -33.957001     6A1   -33.956999     7A1   -33.956984  
       1A2   -33.954925     1B2   -33.954924     2B2   -33.954911  
       8A1    -4.330297     6B1    -4.330010     9A1    -4.330006  
      10A1    -2.869963    11A1    -2.868467     7B1    -2.868457  
      12A1    -2.867169     8B1    -2.867165     9B1    -2.866979  
       3B2    -2.863639     4B2    -2.863384     2A2    -2.863383  
      13A1    -0.461345    14A1    -0.435422    10B1    -0.435355  
       5B2    -0.431468    15A1    -0.424645     6B2    -0.418024  
       3A2    -0.418017    16A1    -0.405973    11B1    -0.405945  
      17A1    -0.404296    18A1    -0.402339    12B1    -0.402290  
       4A2    -0.402223     5A2    -0.401508     7B2    -0.401473  
      13B1    -0.394570  

    Virtual:                                                              

      19A1    -0.299275    14B1    -0.299218     8B2    -0.230283  
      20A1    -0.195223    21A1    -0.179898    15B1    -0.179875  
       9B2    -0.127836     6A2    -0.127778    22A1    -0.065708  
      16B1    -0.065688    23A1    -0.057144    17B1    -0.053663  
      10B2    -0.032203    24A1    -0.025210    25A1    -0.007103  
      18B1    -0.007091    26A1     0.006608    11B2     0.016994  
       7A2     0.017021     8A2     0.030722    12B2     0.030733  
      27A1     0.038828    19B1     0.038882    20B1     0.056017  
      13B2     0.058074    28A1     0.062893    21B1     0.062934  
      29A1     0.114630    22B1     0.114645     9A2     0.139948  
      30A1     0.158562    31A1     0.174076    23B1     0.174097  
      14B2     0.175931    10A2     0.175981    24B1     0.268627  
      32A1     0.280219    25B1     0.280349    33A1     0.427478  
      15B2     0.430971    34A1     0.468963    26B1     0.469062  
      16B2     0.514598    11A2     0.514675    35A1     0.558330  
      36A1     0.573011    27B1     0.573030    17B2     0.574682  
      18B2     0.615950    12A2     0.616079    28B1     0.687213  
      37A1     0.689018    29B1     0.697045    38A1     0.697164  
      13A2     0.779334    39A1     0.789066    30B1     0.789242  
      19B2     0.835389    14A2     0.835550    40A1     0.991290  
      31B1     0.991521    32B1     1.019978    20B2     2.672535  
      41A1     2.699442    33B1     2.725285    42A1     2.725482  
      43A1     2.755191    21B2     2.777955    15A2     2.778076  
      34B1     2.850724    44A1     2.851106    35B1     2.938345  
      45A1     3.100793    36B1     3.100915    46A1     3.112941  
      22B2     3.134153    23B2     3.139617    16A2     3.139676  
      37B1     3.155589    47A1     3.155593    48A1     3.159209  
      38B1     3.159273    24B2     3.159330    17A2     3.160217  
      25B2     3.160219    39B1     3.161000    18A2     3.161238  
      26B2     3.162606    19A2     3.162640    40B1     3.169004  
      49A1     3.169046    41B1     3.190256    50A1     3.196109  
      51A1     3.255276    42B1     3.255502    52A1     3.366262  
      20A2     3.367837    27B2     3.367905    28B2     3.384508  
      53A1     3.425202    43B1     3.425266    21A2     3.447077  
      29B2     3.496660    22A2     3.496693    54A1     3.576069  
      44B1     3.605843    55A1     3.606258    45B1     3.688942  
      56A1     3.867512    46B1     3.867564    57A1    12.552634  
      58A1    12.553019    47B1    12.553045    48B1    12.553621  
      59A1    12.554373    49B1    12.554392    23A2    12.554596  
      30B2    12.554658    31B2    12.554733    24A2    12.555491  
      32B2    12.555737    25A2    12.555758    60A1    12.556645  
      50B1    12.556906    61A1    12.556944    26A2    12.557265  
      33B2    12.557293    51B1    12.557303    62A1    12.557468  
      34B2    12.557499    52B1    12.557519    27A2    12.558311  
      28A2    12.558365    35B2    12.558396    63A1    12.558416  
      53B1    12.558541    64A1    12.558545    65A1    12.687995  
      36B2    12.688504    29A2    12.688516    66A1    12.689167  
      54B1    12.689212    37B2    12.689458    38B2    12.690316  
      30A2    12.690321    55B1    12.690850    39B2    12.693203  
      31A2    12.693946    67A1    12.694010    56B1    12.694042  
      68A1    12.696763    57B1    12.696810    40B2    12.700897  
      32A2    12.700931    69A1    12.702185    58B1    12.753141  
      70A1    12.756369    59B1    12.756612  

    Final Occupation by Irrep:
             A1    A2    B1    B2 
    DOCC [    18,    5,   13,    7 ]

  @DF-RKS Final Energy: -4924.18306123541242

   => Energetics <=

    Nuclear Repulsion Energy =            551.1098054879397523
    One-Electron Energy =               -7957.1140442858350070
    Two-Electron Energy =                2686.8101122342977760
    DFT Exchange-Correlation Energy =    -204.9889346718146612
    Empirical Dispersion Energy =           0.0000000000000000
    VV10 Nonlocal Energy =                  0.0000000000000000
    Total Energy =                      -4924.1830612354124241

Computation Completed


Properties will be evaluated at   0.000000,   0.000000,   0.000000 [a0]

Properties computed using the SCF density matrix

  Nuclear Dipole Moment: [e a0]
     X:     0.0000      Y:    -0.0000      Z:    -0.0000

  Electronic Dipole Moment: [e a0]
     X:     0.0000      Y:     0.0000      Z:     0.0006

  Dipole Moment: [e a0]
     X:     0.0000      Y:    -0.0000      Z:     0.0006     Total:     0.0006

  Dipole Moment: [D]
     X:     0.0000      Y:    -0.0000      Z:     0.0016     Total:     0.0016


*** tstop() called on bp1-compute00092.data.bp.acrc.priv at Fri Oct 29 08:24:11 2021
Module time:
	user time   =      33.24 seconds =       0.55 minutes
	system time =       1.16 seconds =       0.02 minutes
	total time  =          1 seconds =       0.02 minutes
Total time:
	user time   =     213.11 seconds =       3.55 minutes
	system time =      10.16 seconds =       0.17 minutes
	total time  =         17 seconds =       0.28 minutes

*** tstart() called on bp1-compute00092.data.bp.acrc.priv
*** at Fri Oct 29 08:24:11 2021


         ------------------------------------------------------------
                                   SCF GRAD                          
                          Rob Parrish, Justin Turney,                
                       Andy Simmonett, and Alex Sokolov              
         ------------------------------------------------------------

  ==> Geometry <==

    Molecular point group: c2v
    Full point group: C2v

    Geometry (in Angstrom), charge = 1, multiplicity = 1:

       Center              X                  Y                   Z               Mass       
    ------------   -----------------  -----------------  -----------------  -----------------
         CU           0.000000000000     0.000000000000     1.399149832775    62.929597720000
         CU           1.210892580753     0.000000000000    -0.699574916387    62.929597720000
         CU          -1.210892580753    -0.000000000000    -0.699574916387    62.929597720000

  Nuclear repulsion =  551.109805487939752

  ==> Basis Set <==

  Basis Set: DEF2-TZVPPD
    Blend: DEF2-TZVPPD
    Number of shells: 57
    Number of basis function: 201
    Number of Cartesian functions: 249
    Spherical Harmonics?: true
    Max angular momentum: 4

  ==> DFJKGrad: Density-Fitted SCF Gradients <==

    Gradient:                    1
    J tasked:                  Yes
    K tasked:                   No
    wK tasked:                  No
    OpenMP threads:             24
    Integrals threads:          24
    Memory [MiB]:           102996
    Schwarz Cutoff:          0E+00
    Fitting Condition:       1E-10

   => Auxiliary Basis Set <=

  Basis Set: (DEF2-TZVPPD AUX)
    Blend: DEF2-TZVPP-JKFIT
    Number of shells: 174
    Number of basis function: 792
    Number of Cartesian functions: 1131
    Spherical Harmonics?: true
    Max angular momentum: 6

  ==> DFT Potential <==

   => Composite Functional: GAM <= 

   GAM GGA Minessota Exchange-Correlation Functional

    H.S. Yu, et al., Phys. Chem. Chem. Phys. 17, 12146, 2015


    Deriv               =              1
    GGA                 =           TRUE
    Meta                =          FALSE

    Exchange Hybrid     =          FALSE
    MP2 Hybrid          =          FALSE

   => Exchange Functionals <=

    1.0000     XC_GGA_X_GAM

   => Correlation Functionals <=

    1.0000     XC_GGA_C_GAM

   => Molecular Quadrature <=

    Radial Scheme          =       TREUTLER
    Pruning Scheme         =           FLAT
    Nuclear Scheme         =       TREUTLER

    BS radius alpha        =              1
    Pruning alpha          =              1
    Radial Points          =             75
    Spherical Points       =            302
    Total Points           =          67950
    Total Blocks           =            593
    Max Points             =            256
    Max Functions          =            191


  -Total Gradient:
     Atom            X                  Y                   Z
    ------   -----------------  -----------------  -----------------
       1        0.000000000000     0.000000000000    -0.001747002462
       2       -0.001513688006    -0.000000000000     0.000915127497
       3        0.001513688006     0.000000000000     0.000915127497


*** tstop() called on bp1-compute00092.data.bp.acrc.priv at Fri Oct 29 08:24:17 2021
Module time:
	user time   =      48.60 seconds =       0.81 minutes
	system time =       3.14 seconds =       0.05 minutes
	total time  =          6 seconds =       0.10 minutes
Total time:
	user time   =     261.73 seconds =       4.36 minutes
	system time =      13.30 seconds =       0.22 minutes
	total time  =         23 seconds =       0.38 minutes

			-----------------------------------------
			 OPTKING 2.0: for geometry optimizations 
			  - R.A. King,  Bethel University        
			-----------------------------------------
	At level 1: Red. Int., RFO, no backsteps, dynamic trust

	Previous internal coordinate definitions found.
	---Fragment 1 Geometry and Gradient---
	 CU          0.0000000000        0.0000000000        2.6440099924
	 CU          2.2882553450        0.0000000000       -1.3220049962
	 CU         -2.2882553450       -0.0000000000       -1.3220049962
	             0.0000000000        0.0000000000       -0.0017470025
	            -0.0015136880       -0.0000000000        0.0009151275
	             0.0015136880        0.0000000000        0.0009151275

	---Fragment 1 Intrafragment Coordinates---
	 - Coordinate -           - BOHR/RAD -       - ANG/DEG -
	 R(1,2)           =         4.578798	       2.422995
	 R(1,3)           =         4.578798	       2.422995
	 R(2,3)           =         4.576511	       2.421785
	 B(1,2,3)         =         1.047486	      60.016520
	 B(1,3,2)         =         1.047486	      60.016520
	 B(2,1,3)         =         1.046621	      59.966959

	Current energy   :     -4924.1830612354

	Energy change for the previous step:
		Projected    :        -0.0015067327
		Actual       :        -0.0008731098

	Performing BFGS update.
	Previous computed or guess Hessian on step 1.
	Steps to be used in Hessian update: 2 1
	Taking RFO optimization step.
	Going to follow RFO solution 1.
	Using RFO vector 1.
	Norm of target step-size    0.03525
	Projected energy change by RFO approximation:        -0.0000627267

	Back-transformation to cartesian coordinates...
	Successfully converged to displaced geometry.

	--- Internal Coordinate Step in ANG or DEG, aJ/ANG or AJ/DEG ---
	 ---------------------------------------------------------------------------
	   Coordinate                Previous        Force       Change         New 
	   ----------                --------       ------       ------       ------
	    1 R(1,2)          =      2.422995     0.008433     0.010827     2.433823
	    2 R(1,3)          =      2.422995     0.008433     0.010827     2.433823
	    3 R(2,3)          =      2.421785     0.008268     0.010651     2.432436
	    4 B(1,2,3)        =     60.016520     0.000000     0.002329    60.018850
	    5 B(1,3,2)        =     60.016520     0.000000     0.002329    60.018850
	    6 B(2,1,3)        =     59.966959    -0.000000    -0.004658    59.962301
	 ---------------------------------------------------------------------------
	Successfully symmetrized geometry.

  ==> Convergence Check <==

  Measures of convergence in internal coordinates in au.
  Criteria marked as inactive (o), active & met (*), and active & unmet ( ).
  ---------------------------------------------------------------------------------------------
   Step     Total Energy     Delta E     MAX Force     RMS Force      MAX Disp      RMS Disp   
  ---------------------------------------------------------------------------------------------
    Convergence Criteria    1.00e-06 *    3.00e-04 *             o    1.20e-03 *             o
  ---------------------------------------------------------------------------------------------
      3   -4924.18306124   -8.73e-04      1.02e-03      7.19e-04 o    2.05e-02      1.44e-02 o  ~
  ---------------------------------------------------------------------------------------------

	Writing optimization data to binary file.
	Structure for next step:
	Cartesian Geometry (in Angstrom)
	   CU     0.0000000000   0.0000000000   1.4054350635
	   CU     1.2162178978   0.0000000000  -0.7027175318
	   CU    -1.2162178978  -0.0000000000  -0.7027175318
			--------------------------
			 OPTKING Finished Execution 
			--------------------------

    Structure for next step:
    Molecular point group: c2v
    Full point group: C2v

    Geometry (in Angstrom), charge = 1, multiplicity = 1:

    CU           0.000000000000     0.000000000000     1.405435069039
    CU           1.216217902611     0.000000000000    -0.702717534519
    CU          -1.216217902611    -0.000000000000    -0.702717534519

gradient() will perform analytic gradient computation.

*** tstart() called on bp1-compute00092.data.bp.acrc.priv
*** at Fri Oct 29 08:24:17 2021

   => Loading Basis Set <=

    Name: DEF2-TZVPPD
    Role: ORBITAL
    Keyword: BASIS
    atoms 1-3 entry CU         line  1290 file /work/zw18965/.conda/envs/p4env/share/psi4/basis/def2-tzvppd.gbs 


         ---------------------------------------------------------
                                   SCF
               by Justin Turney, Rob Parrish, Andy Simmonett
                          and Daniel G. A. Smith
                              RKS Reference
                       24 Threads, 137329 MiB Core
         ---------------------------------------------------------

  ==> Geometry <==

    Molecular point group: c2v
    Full point group: C2v

    Geometry (in Angstrom), charge = 1, multiplicity = 1:

       Center              X                  Y                   Z               Mass       
    ------------   -----------------  -----------------  -----------------  -----------------
         CU           0.000000000000     0.000000000000     1.405435069039    62.929597720000
         CU           1.216217902611     0.000000000000    -0.702717534519    62.929597720000
         CU          -1.216217902611    -0.000000000000    -0.702717534519    62.929597720000

  Running in c2v symmetry.

  Rotational constants: A =      0.09055  B =      0.09041  C =      0.04524 [cm^-1]
  Rotational constants: A =   2714.62262  B =   2710.50001  C =   1356.27987 [MHz]
  Nuclear repulsion =  548.670950693559917

  Charge       = 1
  Multiplicity = 1
  Electrons    = 86
  Nalpha       = 43
  Nbeta        = 43

  ==> Algorithm <==

  SCF Algorithm Type is DF.
  DIIS enabled.
  MOM disabled.
  Fractional occupation disabled.
  Guess Type is READ.
  Energy threshold   = 1.00e-08
  Density threshold  = 1.00e-08
  Integral threshold = 0.00e+00

  ==> Primary Basis <==

  Basis Set: DEF2-TZVPPD
    Blend: DEF2-TZVPPD
    Number of shells: 57
    Number of basis function: 201
    Number of Cartesian functions: 249
    Spherical Harmonics?: true
    Max angular momentum: 4

  ==> DFT Potential <==

   => Composite Functional: GAM <= 

   GAM GGA Minessota Exchange-Correlation Functional

    H.S. Yu, et al., Phys. Chem. Chem. Phys. 17, 12146, 2015


    Deriv               =              1
    GGA                 =           TRUE
    Meta                =          FALSE

    Exchange Hybrid     =          FALSE
    MP2 Hybrid          =          FALSE

   => Exchange Functionals <=

    1.0000     XC_GGA_X_GAM

   => Correlation Functionals <=

    1.0000     XC_GGA_C_GAM

   => Molecular Quadrature <=

    Radial Scheme          =       TREUTLER
    Pruning Scheme         =           FLAT
    Nuclear Scheme         =       TREUTLER

    BS radius alpha        =              1
    Pruning alpha          =              1
    Radial Points          =             75
    Spherical Points       =            302
    Total Points           =          67950
    Total Blocks           =            594
    Max Points             =            255
    Max Functions          =            187

   => Loading Basis Set <=

    Name: (DEF2-TZVPPD AUX)
    Role: JKFIT
    Keyword: DF_BASIS_SCF
    atoms 1-3 entry CU         line  2361 file /work/zw18965/.conda/envs/p4env/share/psi4/basis/def2-tzvpp-jkfit.gbs 

   => Loading Basis Set <=

    Name: DEF2-TZVPPD
    Role: ORBITAL
    Keyword: BASIS
    atoms 1-3 entry CU         line  1290 file /work/zw18965/.conda/envs/p4env/share/psi4/basis/def2-tzvppd.gbs 

  Reading orbitals from file 180, no projection.

  ==> Pre-Iterations <==

   -------------------------------------------------------
    Irrep   Nso     Nmo     Nalpha   Nbeta   Ndocc  Nsocc
   -------------------------------------------------------
     A1        70      70       0       0       0       0
     A2        32      32       0       0       0       0
     B1        59      59       0       0       0       0
     B2        40      40       0       0       0       0
   -------------------------------------------------------
    Total     201     201      43      43      43       0
   -------------------------------------------------------

  ==> Integral Setup <==

  DFHelper Memory: AOs need 0.243 GiB; user supplied 100.327 GiB. Using in-core AOs.

  ==> MemDFJK: Density-Fitted J/K Matrices <==

    J tasked:                   Yes
    K tasked:                    No
    wK tasked:                   No
    OpenMP threads:              24
    Memory [MiB]:            102735
    Algorithm:                 Core
    Schwarz Cutoff:           1E-12
    Mask sparsity (%):       7.9850
    Fitting Condition:        1E-10

   => Auxiliary Basis Set <=

  Basis Set: (DEF2-TZVPPD AUX)
    Blend: DEF2-TZVPP-JKFIT
    Number of shells: 174
    Number of basis function: 792
    Number of Cartesian functions: 1131
    Spherical Harmonics?: true
    Max angular momentum: 6

  Cached 100.0% of DFT collocation blocks in 0.256 [GiB].

  Minimum eigenvalue in the overlap matrix is 8.7777869828E-04.
  Using Symmetric Orthogonalization.

  SCF Guess: Orbitals guess was supplied from a previous computation.

  ==> Iterations <==

                           Total Energy        Delta E     RMS |[F,P]|

   @DF-RKS iter   0: -4924.18425269504951   -4.92418e+03   3.72083e-04 
   @DF-RKS iter   1: -4924.18309543424220    1.15726e-03   2.77987e-05 DIIS
   @DF-RKS iter   2: -4924.18307679219652    1.86420e-05   1.05565e-04 DIIS
   @DF-RKS iter   3: -4924.18309788533588   -2.10931e-05   1.25533e-05 DIIS
   @DF-RKS iter   4: -4924.18309842014241   -5.34807e-07   5.31411e-06 DIIS
   @DF-RKS iter   5: -4924.18309847985984   -5.97174e-08   1.21988e-06 DIIS
   @DF-RKS iter   6: -4924.18309848292665   -3.06682e-09   2.60087e-07 DIIS
   @DF-RKS iter   7: -4924.18309848309400   -1.67347e-10   1.41766e-08 DIIS
   @DF-RKS iter   8: -4924.18309848309309    9.09495e-13   1.30236e-08 DIIS
   @DF-RKS iter   9: -4924.18309848309582   -2.72848e-12   1.89867e-09 DIIS
  Energy and wave function converged.


  ==> Post-Iterations <==

    Orbital Energies [Eh]
    ---------------------

    Doubly Occupied:                                                      

       1B1  -321.087624     1A1  -321.087619     2A1  -321.087599  
       2B1   -38.557322     3A1   -38.557311     4A1   -38.557258  
       3B1   -33.956474     5A1   -33.956470     4B1   -33.956456  
       5B1   -33.956426     6A1   -33.956424     7A1   -33.956405  
       1A2   -33.954376     1B2   -33.954375     2B2   -33.954360  
       8A1    -4.329733     6B1    -4.329465     9A1    -4.329459  
      10A1    -2.869291    11A1    -2.867874     7B1    -2.867863  
      12A1    -2.866636     8B1    -2.866633     9B1    -2.866461  
       3B2    -2.863127     2A2    -2.862884     4B2    -2.862884  
      13A1    -0.460049    14A1    -0.434476    10B1    -0.434401  
       5B2    -0.430486    15A1    -0.423856     6B2    -0.417367  
       3A2    -0.417357    16A1    -0.405586    11B1    -0.405555  
      17A1    -0.403693    18A1    -0.401995    12B1    -0.401943  
       4A2    -0.401918     5A2    -0.401185     7B2    -0.401152  
      13B1    -0.394410  

    Virtual:                                                              

      19A1    -0.299257    14B1    -0.299192     8B2    -0.229846  
      20A1    -0.195249    21A1    -0.180043    15B1    -0.180016  
       9B2    -0.128038     6A2    -0.127973    22A1    -0.065802  
      16B1    -0.065778    23A1    -0.057081    17B1    -0.054159  
      10B2    -0.032021    24A1    -0.025143    25A1    -0.007096  
      18B1    -0.007083    26A1     0.006367    11B2     0.016957  
       7A2     0.016988     8A2     0.030500    12B2     0.030513  
      27A1     0.038483    19B1     0.038545    20B1     0.055716  
      13B2     0.057741    28A1     0.062561    21B1     0.062609  
      29A1     0.114169    22B1     0.114186     9A2     0.139541  
      30A1     0.158723    31A1     0.173822    23B1     0.173846  
      14B2     0.175583    10A2     0.175640    24B1     0.267991  
      32A1     0.278732    25B1     0.278885    33A1     0.428057  
      15B2     0.433044    34A1     0.468928    26B1     0.469045  
      16B2     0.514227    11A2     0.514311    35A1     0.559295  
      36A1     0.572661    27B1     0.572682    17B2     0.574448  
      18B2     0.616666    12A2     0.616815    28B1     0.685339  
      37A1     0.688771    29B1     0.695463    38A1     0.695600  
      13A2     0.778180    39A1     0.787488    30B1     0.787697  
      19B2     0.833857    14A2     0.834042    40A1     0.988048  
      31B1     0.988331    32B1     1.017813    20B2     2.673063  
      41A1     2.694587    33B1     2.722830    42A1     2.723045  
      43A1     2.751748    21B2     2.777685    15A2     2.777820  
      34B1     2.856678    44A1     2.857112    35B1     2.940603  
      45A1     3.098378    36B1     3.098523    46A1     3.114534  
      22B2     3.134967    23B2     3.140695    16A2     3.140764  
      37B1     3.155900    47A1     3.155910    48A1     3.159741  
      24B2     3.159807    38B1     3.159810    17A2     3.160613  
      25B2     3.160619    39B1     3.161183    18A2     3.161594  
      26B2     3.163096    19A2     3.163123    40B1     3.169578  
      49A1     3.169625    41B1     3.186534    50A1     3.196234  
      51A1     3.252467    42B1     3.252724    52A1     3.364893  
      20A2     3.366867    27B2     3.366941    28B2     3.381567  
      53A1     3.424692    43B1     3.424764    21A2     3.446668  
      29B2     3.495919    22A2     3.495964    54A1     3.567460  
      44B1     3.601261    55A1     3.601748    45B1     3.687637  
      56A1     3.859441    46B1     3.859525    57A1    12.553199  
      58A1    12.553563    47B1    12.553586    48B1    12.554174  
      59A1    12.554886    49B1    12.554903    23A2    12.555135  
      30B2    12.555193    31B2    12.555265    24A2    12.556013  
      32B2    12.556246    25A2    12.556264    60A1    12.557154  
      50B1    12.557409    61A1    12.557447    26A2    12.557757  
      33B2    12.557785    51B1    12.557787    62A1    12.557950  
      52B1    12.557996    34B2    12.557997    27A2    12.558775  
      28A2    12.558830    35B2    12.558860    63A1    12.558882  
      53B1    12.559003    64A1    12.559006    65A1    12.688674  
      36B2    12.689163    29A2    12.689176    66A1    12.689818  
      54B1    12.689859    37B2    12.690033    38B2    12.690836  
      30A2    12.690838    55B1    12.691330    39B2    12.693697  
      31A2    12.694159    67A1    12.694777    56B1    12.694819  
      68A1    12.696809    57B1    12.696854    40B2    12.700868  
      32A2    12.700906    69A1    12.702658    58B1    12.750574  
      70A1    12.753598    59B1    12.753864  

    Final Occupation by Irrep:
             A1    A2    B1    B2 
    DOCC [    18,    5,   13,    7 ]

  @DF-RKS Final Energy: -4924.18309848309582

   => Energetics <=

    Nuclear Repulsion Energy =            548.6709506935599165
    One-Electron Energy =               -7952.2859662881064651
    Two-Electron Energy =                2684.4194938408527378
    DFT Exchange-Correlation Energy =    -204.9875767294014963
    Empirical Dispersion Energy =           0.0000000000000000
    VV10 Nonlocal Energy =                  0.0000000000000000
    Total Energy =                      -4924.1830984830958187

Computation Completed


Properties will be evaluated at   0.000000,   0.000000,   0.000000 [a0]

Properties computed using the SCF density matrix

  Nuclear Dipole Moment: [e a0]
     X:    -0.0000      Y:     0.0000      Z:    -0.0000

  Electronic Dipole Moment: [e a0]
     X:     0.0000      Y:     0.0000      Z:     0.0007

  Dipole Moment: [e a0]
     X:    -0.0000      Y:     0.0000      Z:     0.0007     Total:     0.0007

  Dipole Moment: [D]
     X:    -0.0000      Y:     0.0000      Z:     0.0017     Total:     0.0017


*** tstop() called on bp1-compute00092.data.bp.acrc.priv at Fri Oct 29 08:24:19 2021
Module time:
	user time   =      31.67 seconds =       0.53 minutes
	system time =       1.23 seconds =       0.02 minutes
	total time  =          2 seconds =       0.03 minutes
Total time:
	user time   =     294.14 seconds =       4.90 minutes
	system time =      14.57 seconds =       0.24 minutes
	total time  =         25 seconds =       0.42 minutes

*** tstart() called on bp1-compute00092.data.bp.acrc.priv
*** at Fri Oct 29 08:24:19 2021


         ------------------------------------------------------------
                                   SCF GRAD                          
                          Rob Parrish, Justin Turney,                
                       Andy Simmonett, and Alex Sokolov              
         ------------------------------------------------------------

  ==> Geometry <==

    Molecular point group: c2v
    Full point group: C2v

    Geometry (in Angstrom), charge = 1, multiplicity = 1:

       Center              X                  Y                   Z               Mass       
    ------------   -----------------  -----------------  -----------------  -----------------
         CU           0.000000000000     0.000000000000     1.405435069039    62.929597720000
         CU           1.216217902611     0.000000000000    -0.702717534519    62.929597720000
         CU          -1.216217902611    -0.000000000000    -0.702717534519    62.929597720000

  Nuclear repulsion =  548.670950693559917

  ==> Basis Set <==

  Basis Set: DEF2-TZVPPD
    Blend: DEF2-TZVPPD
    Number of shells: 57
    Number of basis function: 201
    Number of Cartesian functions: 249
    Spherical Harmonics?: true
    Max angular momentum: 4

  ==> DFJKGrad: Density-Fitted SCF Gradients <==

    Gradient:                    1
    J tasked:                  Yes
    K tasked:                   No
    wK tasked:                  No
    OpenMP threads:             24
    Integrals threads:          24
    Memory [MiB]:           102996
    Schwarz Cutoff:          0E+00
    Fitting Condition:       1E-10

   => Auxiliary Basis Set <=

  Basis Set: (DEF2-TZVPPD AUX)
    Blend: DEF2-TZVPP-JKFIT
    Number of shells: 174
    Number of basis function: 792
    Number of Cartesian functions: 1131
    Spherical Harmonics?: true
    Max angular momentum: 6

  ==> DFT Potential <==

   => Composite Functional: GAM <= 

   GAM GGA Minessota Exchange-Correlation Functional

    H.S. Yu, et al., Phys. Chem. Chem. Phys. 17, 12146, 2015


    Deriv               =              1
    GGA                 =           TRUE
    Meta                =          FALSE

    Exchange Hybrid     =          FALSE
    MP2 Hybrid          =          FALSE

   => Exchange Functionals <=

    1.0000     XC_GGA_X_GAM

   => Correlation Functionals <=

    1.0000     XC_GGA_C_GAM

   => Molecular Quadrature <=

    Radial Scheme          =       TREUTLER
    Pruning Scheme         =           FLAT
    Nuclear Scheme         =       TREUTLER

    BS radius alpha        =              1
    Pruning alpha          =              1
    Radial Points          =             75
    Spherical Points       =            302
    Total Points           =          67950
    Total Blocks           =            594
    Max Points             =            255
    Max Functions          =            187


  -Total Gradient:
     Atom            X                  Y                   Z
    ------   -----------------  -----------------  -----------------
       1        0.000000000000    -0.000000000000    -0.000307702126
       2       -0.000282223795    -0.000000000000     0.000197350132
       3        0.000282223795     0.000000000000     0.000197350132


*** tstop() called on bp1-compute00092.data.bp.acrc.priv at Fri Oct 29 08:24:24 2021
Module time:
	user time   =      47.36 seconds =       0.79 minutes
	system time =       2.87 seconds =       0.05 minutes
	total time  =          5 seconds =       0.08 minutes
Total time:
	user time   =     341.52 seconds =       5.69 minutes
	system time =      17.44 seconds =       0.29 minutes
	total time  =         30 seconds =       0.50 minutes

			-----------------------------------------
			 OPTKING 2.0: for geometry optimizations 
[...]
    Mask sparsity (%):       7.9850
    Fitting Condition:        1E-10

   => Auxiliary Basis Set <=

  Basis Set: (DEF2-TZVPPD AUX)
    Blend: DEF2-TZVPP-JKFIT
    Number of shells: 174
    Number of basis function: 792
    Number of Cartesian functions: 1131
    Spherical Harmonics?: true
    Max angular momentum: 6

  Cached 100.0% of DFT collocation blocks in 0.254 [GiB].

  Minimum eigenvalue in the overlap matrix is 8.8045150414E-04.
  Using Symmetric Orthogonalization.

  SCF Guess: Superposition of Atomic Densities via on-the-fly atomic UHF.

  ==> Iterations <==

                           Total Energy        Delta E     RMS |[F,P]|

   @DF-RKS iter SAD: -4917.80356917828612   -4.91780e+03   0.00000e+00 
   @DF-RKS iter   1: -4914.30941808974057    3.49415e+00   5.27729e-02 DIIS
   @DF-RKS iter   2: -4784.52859346580681    1.29781e+02   1.15763e-01 DIIS
   @DF-RKS iter   3: -4922.18533728271086   -1.37657e+02   1.86315e-02 DIIS
   @DF-RKS iter   4: -4916.24410491079834    5.94123e+00   3.95084e-02 DIIS
   @DF-RKS iter   5: -4922.10040654887871   -5.85630e+00   2.07624e-02 DIIS
   @DF-RKS iter   6: -4923.67224145613363   -1.57183e+00   1.06024e-02 DIIS
   @DF-RKS iter   7: -4924.07881196054404   -4.06571e-01   4.81172e-03 DIIS
   @DF-RKS iter   8: -4924.00368294108921    7.51290e-02   6.37449e-03 DIIS
   @DF-RKS iter   9: -4924.17152420451657   -1.67841e-01   1.36141e-03 DIIS
   @DF-RKS iter  10: -4924.17804351368613   -6.51931e-03   7.95636e-04 DIIS
   @DF-RKS iter  11: -4924.18277695619690   -4.73344e-03   1.96285e-04 DIIS
   @DF-RKS iter  12: -4924.18307106166867   -2.94105e-04   8.34694e-05 DIIS
   @DF-RKS iter  13: -4924.18309817586487   -2.71142e-05   1.70368e-05 DIIS
   @DF-RKS iter  14: -4924.18309990507987   -1.72922e-06   6.81762e-06 DIIS
   @DF-RKS iter  15: -4924.18310016103533   -2.55955e-07   1.42717e-06 DIIS
   @DF-RKS iter  16: -4924.18310017874865   -1.77133e-08   5.54594e-07 DIIS
   @DF-RKS iter  17: -4924.18310018239572   -3.64707e-09   1.05092e-07 DIIS
   @DF-RKS iter  18: -4924.18310018248667   -9.09495e-11   1.14285e-08 DIIS
   @DF-RKS iter  19: -4924.18310018249031   -3.63798e-12   1.50795e-09 DIIS
  Energy and wave function converged.


  ==> Post-Iterations <==

    Orbital Energies [Eh]
    ---------------------

    Doubly Occupied:                                                      

       1Ap  -321.087528     2Ap  -321.087514     3Ap  -321.087491  
       4Ap   -38.557210     5Ap   -38.557190     6Ap   -38.557136  
       7Ap   -33.956369     8Ap   -33.956354     9Ap   -33.956328  
      10Ap   -33.956316    11Ap   -33.956303    12Ap   -33.956277  
       1App  -33.954271     2App  -33.954259     3App  -33.954238  
      13Ap    -4.329617    14Ap    -4.329358    15Ap    -4.329339  
      16Ap    -2.869153    17Ap    -2.867750    18Ap    -2.867740  
      19Ap    -2.866528    20Ap    -2.866519    21Ap    -2.866352  
       4App   -2.863022     5App   -2.862789     6App   -2.862774  
      22Ap    -0.459783    23Ap    -0.434274    24Ap    -0.434210  
       7App   -0.430284    25Ap    -0.423694     8App   -0.417258  
       9App   -0.417193    26Ap    -0.405502    27Ap    -0.405478  
      28Ap    -0.403567    29Ap    -0.401908    30Ap    -0.401881  
      10App   -0.401853    11App   -0.401133    12App   -0.401078  
      31Ap    -0.394375  

    Virtual:                                                              

      32Ap    -0.299253    33Ap    -0.299187    13App   -0.229757  
      34Ap    -0.195254    35Ap    -0.180073    36Ap    -0.180044  
      14App   -0.128083    15App   -0.128011    37Ap    -0.065822  
      38Ap    -0.065796    39Ap    -0.057071    40Ap    -0.054262  
      16App   -0.031983    41Ap    -0.025129    42Ap    -0.007095  
      43Ap    -0.007081    44Ap     0.006318    17App    0.016949  
      18App    0.016981    19App    0.030457    20App    0.030465  
      45Ap     0.038409    46Ap     0.038472    47Ap     0.055653  
      21App    0.057670    48Ap     0.062490    49Ap     0.062545  
      50Ap     0.114073    51Ap     0.114091    22App    0.139455  
      52Ap     0.158755    53Ap     0.173769    54Ap     0.173793  
      23App    0.175508    24App    0.175569    55Ap     0.267859  
      56Ap     0.278416    57Ap     0.278593    58Ap     0.428162  
      25App    0.433493    59Ap     0.468911    60Ap     0.469055  
      26App    0.514149    27App    0.514232    61Ap     0.559494  
      62Ap     0.572589    63Ap     0.572614    28App    0.574421  
      29App    0.616818    30App    0.616986    64Ap     0.684952  
      65Ap     0.688710    66Ap     0.695132    67Ap     0.695275  
      31App    0.777941    68Ap     0.787155    69Ap     0.787380  
      32App    0.833532    33App    0.833744    70Ap     0.987352  
      71Ap     0.987693    72Ap     1.017361    34App    2.673171  
      73Ap     2.693538    74Ap     2.722322    75Ap     2.722569  
      76Ap     2.751087    35App    2.777639    36App    2.777743  
      77Ap     2.857900    78Ap     2.858361    79Ap     2.941069  
      80Ap     3.097848    81Ap     3.098031    82Ap     3.114871  
      37App    3.135118    38App    3.140890    39App    3.141028  
      83Ap     3.155950    84Ap     3.155973    85Ap     3.159840  
      86Ap     3.159897    40App    3.159940    41App    3.160727  
      42App    3.160742    87Ap     3.161186    43App    3.161677  
      44App    3.163185    45App    3.163224    88Ap     3.169694  
      89Ap     3.169719    90Ap     3.185804    91Ap     3.196259  
      92Ap     3.251835    93Ap     3.252182    94Ap     3.364584  
      46App    3.366651    47App    3.366802    48App    3.380981  
      95Ap     3.424573    96Ap     3.424641    49App    3.446612  
      50App    3.495776    51App    3.495823    97Ap     3.565660  
      98Ap     3.600278    99Ap     3.600813   100Ap     3.687355  
     101Ap     3.857786   102Ap     3.857869   103Ap    12.553309  
     104Ap    12.553616   105Ap    12.553722   106Ap    12.554286  
     107Ap    12.554964   108Ap    12.555016    52App   12.555319  
      53App   12.555376    54App   12.555527    55App   12.556052  
      56App   12.556295    57App   12.556372   109Ap    12.557188  
     110Ap    12.557375   111Ap    12.557574   112Ap    12.557874  
     113Ap    12.557912    58App   12.557955    59App   12.558049  
     114Ap    12.558057    60App   12.558205    61App   12.558851  
     115Ap    12.558918    62App   12.558953   116Ap    12.558999  
      63App   12.559011   117Ap    12.559104   118Ap    12.688781  
      64App   12.689289    65App   12.689327   119Ap    12.689942  
     120Ap    12.689959    66App   12.690183    67App   12.690961  
      68App   12.690984   121Ap    12.691409    69App   12.693796  
      70App   12.694206   122Ap    12.694945   123Ap    12.694968  
     124Ap    12.696763   125Ap    12.696877    71App   12.700863  
      72App   12.700906   126Ap    12.702743   127Ap    12.750077  
     128Ap    12.753052   129Ap    12.753319  

    Final Occupation by Irrep:
             Ap   App 
    DOCC [    31,   12 ]

  @DF-RKS Final Energy: -4924.18310018249031

   => Energetics <=

    Nuclear Repulsion Energy =            548.1656575408126173
    One-Electron Energy =               -7951.2856401148874284
    Two-Electron Energy =                2683.9241842679639376
    DFT Exchange-Correlation Energy =    -204.9873018763797177
    Empirical Dispersion Energy =           0.0000000000000000
    VV10 Nonlocal Energy =                  0.0000000000000000
    Total Energy =                      -4924.1831001824912164

Computation Completed


Properties will be evaluated at   0.000000,   0.000000,   0.000000 [a0]

Properties computed using the SCF density matrix

  Nuclear Dipole Moment: [e a0]
     X:     0.0000      Y:     0.0000      Z:     0.0000

  Electronic Dipole Moment: [e a0]
     X:     0.0001      Y:     0.0000      Z:     0.0005

  Dipole Moment: [e a0]
     X:     0.0001      Y:     0.0000      Z:     0.0005     Total:     0.0005

  Dipole Moment: [D]
     X:     0.0003      Y:     0.0000      Z:     0.0013     Total:     0.0013


*** tstop() called on bp1-compute00092.data.bp.acrc.priv at Fri Oct 29 08:25:18 2021
Module time:
	user time   =      48.56 seconds =       0.81 minutes
	system time =       1.46 seconds =       0.02 minutes
	total time  =          2 seconds =       0.03 minutes
Total time:
	user time   =    1022.04 seconds =      17.03 minutes
	system time =      47.39 seconds =       0.79 minutes
	total time  =         84 seconds =       1.40 minutes

*** tstart() called on bp1-compute00092.data.bp.acrc.priv
*** at Fri Oct 29 08:25:18 2021


         ------------------------------------------------------------
                                   SCF GRAD                          
                          Rob Parrish, Justin Turney,                
                       Andy Simmonett, and Alex Sokolov              
         ------------------------------------------------------------

  ==> Geometry <==

    Molecular point group: cs
    Full point group: Cs

    Geometry (in Angstrom), charge = 1, multiplicity = 1:

       Center              X                  Y                   Z               Mass       
    ------------   -----------------  -----------------  -----------------  -----------------
         CU          -0.000192491616     0.000000000000     1.406750454743    62.929597720000
         CU           1.217418054215     0.000000000000    -0.703542061441    62.929597720000
         CU          -1.217225562599     0.000000000000    -0.703208393302    62.929597720000

  Nuclear repulsion =  548.165657540812617

  ==> Basis Set <==

  Basis Set: DEF2-TZVPPD
    Blend: DEF2-TZVPPD
    Number of shells: 57
    Number of basis function: 201
    Number of Cartesian functions: 249
    Spherical Harmonics?: true
    Max angular momentum: 4

  ==> DFJKGrad: Density-Fitted SCF Gradients <==

    Gradient:                    1
    J tasked:                  Yes
    K tasked:                   No
    wK tasked:                  No
    OpenMP threads:             24
    Integrals threads:          24
    Memory [MiB]:           102996
    Schwarz Cutoff:          0E+00
    Fitting Condition:       1E-10

   => Auxiliary Basis Set <=

  Basis Set: (DEF2-TZVPPD AUX)
    Blend: DEF2-TZVPP-JKFIT
    Number of shells: 174
    Number of basis function: 792
    Number of Cartesian functions: 1131
    Spherical Harmonics?: true
    Max angular momentum: 6

  ==> DFT Potential <==

   => Composite Functional: GAM <= 

   GAM GGA Minessota Exchange-Correlation Functional

    H.S. Yu, et al., Phys. Chem. Chem. Phys. 17, 12146, 2015


    Deriv               =              1
    GGA                 =           TRUE
    Meta                =          FALSE

    Exchange Hybrid     =          FALSE
    MP2 Hybrid          =          FALSE

   => Exchange Functionals <=

    1.0000     XC_GGA_X_GAM

   => Correlation Functionals <=

    1.0000     XC_GGA_C_GAM

   => Molecular Quadrature <=

    Radial Scheme          =       TREUTLER
    Pruning Scheme         =           FLAT
    Nuclear Scheme         =       TREUTLER

    BS radius alpha        =              1
    Pruning alpha          =              1
    Radial Points          =             75
    Spherical Points       =            302
    Total Points           =          67950
    Total Blocks           =            592
    Max Points             =            256
    Max Functions          =            191


  -Total Gradient:
     Atom            X                  Y                   Z
    ------   -----------------  -----------------  -----------------
       1       -0.000073890501     0.000000000000     0.000019427570
       2       -0.000086685721     0.000000000000    -0.000093395582
       3        0.000145042068     0.000000000000    -0.000023792743


*** tstop() called on bp1-compute00092.data.bp.acrc.priv at Fri Oct 29 08:25:23 2021
Module time:
	user time   =      46.42 seconds =       0.77 minutes
	system time =       2.59 seconds =       0.04 minutes
	total time  =          5 seconds =       0.08 minutes
Total time:
	user time   =    1068.48 seconds =      17.81 minutes
	system time =      49.98 seconds =       0.83 minutes
	total time  =         89 seconds =       1.48 minutes

         ----------------------------------------------------------
                                   FINDIF
                     R. A. King and Jonathon Misiewicz
         ---------------------------------------------------------

  Computing second-derivative from gradients using projected, 
  symmetry-adapted, cartesian coordinates.

  6 gradients passed in, including the reference geometry.
  Generating complete list of displacements from unique ones.

    Operation 2 takes plus displacements of irrep B1 to minus ones.

-------------------------------------------------------------


  ==> Harmonic Vibrational Analysis <==

  non-mass-weighted Hessian:       Symmetric? True   Hermitian? True   Lin Dep Dim?  6 (0)
  projection of translations (True) and rotations (True) removed 6 degrees of freedom (6)
  total projector:                 Symmetric? True   Hermitian? True   Lin Dep Dim?  6 (6)
  mass-weighted Hessian:           Symmetric? True   Hermitian? True   Lin Dep Dim?  6 (0)
  pre-proj  low-frequency mode:    0.0000i [cm^-1]
  pre-proj  low-frequency mode:    0.0000i [cm^-1]
  pre-proj  low-frequency mode:    0.0000i [cm^-1]
  pre-proj  low-frequency mode:    0.0000  [cm^-1]
  pre-proj  low-frequency mode:    0.0000  [cm^-1]
  pre-proj  low-frequency mode:    0.0000  [cm^-1]
  pre-proj  all modes:['0.0000i' '0.0000i' '0.0000i' '0.0000' '0.0000' '0.0000' '159.5144'
 '222.6014' '250.6442']
  projected mass-weighted Hessian: Symmetric? True   Hermitian? True   Lin Dep Dim?  6 (6)
  post-proj low-frequency mode:    0.0000i [cm^-1] (TR)
  post-proj low-frequency mode:    0.0000i [cm^-1] (TR)
  post-proj low-frequency mode:    0.0000i [cm^-1] (TR)
  post-proj low-frequency mode:    0.0000i [cm^-1] (TR)
  post-proj low-frequency mode:    0.0000  [cm^-1] (TR)
  post-proj low-frequency mode:    0.0000  [cm^-1] (TR)
  post-proj  all modes:['0.0000i' '0.0000i' '0.0000i' '0.0000i' '0.0000' '0.0000' '159.5144'
 '222.6014' '250.6442']

  Vibration                       7                   8                   9           
  Freq [cm^-1]                 159.5144            222.6014            250.6442       
  Irrep                           A1                  A1                  B1          
  Reduced mass [u]             62.9296             62.9296             62.9296        
  Force const [mDyne/A]         0.9434              1.8372              2.3293        
  Turning point v=0 [a0]        0.1095              0.0927              0.0874        
  RMS dev v=0 [a0 u^1/2]        0.6143              0.5200              0.4901        
  Char temp [K]                229.5057            320.2738            360.6212       
  ----------------------------------------------------------------------------------
      1   CU              -0.00  0.00  0.58    0.00  0.00  0.58    0.58  0.00 -0.00   
      2   CU              -0.50 -0.00 -0.29    0.50  0.00 -0.29   -0.29 -0.00  0.50   
      3   CU               0.50  0.00 -0.29   -0.50 -0.00 -0.29   -0.29  0.00 -0.50   

  ==> Thermochemistry Components <==

  Entropy, S
    Electronic S            0.000 [cal/(mol K)]        0.000 [J/(mol K)]       0.00000000 [mEh/K] (multiplicity = 1)
    Translational S        41.612 [cal/(mol K)]      174.105 [J/(mol K)]       0.06631321 [mEh/K] (mol. weight = 188.7888 [u], P = 101325.00 [Pa])
    Rotational S           26.496 [cal/(mol K)]      110.858 [J/(mol K)]       0.04222365 [mEh/K] (symmetry no. = 2)
    Vibrational S           6.219 [cal/(mol K)]       26.022 [J/(mol K)]       0.00991127 [mEh/K]
  Total S                  74.327 [cal/(mol K)]      310.986 [J/(mol K)]       0.11844813 [mEh/K]
  Correction S              0.000 [cal/(mol K)]        0.000 [J/(mol K)]       0.00000000 [mEh/K]

  Constant volume heat capacity, Cv
    Electronic Cv           0.000 [cal/(mol K)]        0.000 [J/(mol K)]       0.00000000 [mEh/K]
    Translational Cv        2.981 [cal/(mol K)]       12.472 [J/(mol K)]       0.00475022 [mEh/K]
    Rotational Cv           2.981 [cal/(mol K)]       12.472 [J/(mol K)]       0.00475022 [mEh/K]
    Vibrational Cv          5.460 [cal/(mol K)]       22.846 [J/(mol K)]       0.00870147 [mEh/K]
  Total Cv                 11.422 [cal/(mol K)]       47.789 [J/(mol K)]       0.01820190 [mEh/K]
  Correction Cv             0.000 [cal/(mol K)]        0.000 [J/(mol K)]       0.00000000 [mEh/K]

  Constant pressure heat capacity, Cp
    Electronic Cp           0.000 [cal/(mol K)]        0.000 [J/(mol K)]       0.00000000 [mEh/K]
    Translational Cp        4.968 [cal/(mol K)]       20.786 [J/(mol K)]       0.00791703 [mEh/K]
    Rotational Cp           2.981 [cal/(mol K)]       12.472 [J/(mol K)]       0.00475022 [mEh/K]
    Vibrational Cp          5.460 [cal/(mol K)]       22.846 [J/(mol K)]       0.00870147 [mEh/K]
  Total Cp                 13.409 [cal/(mol K)]       56.104 [J/(mol K)]       0.02136871 [mEh/K]
  Correction Cp             0.000 [cal/(mol K)]        0.000 [J/(mol K)]       0.00000000 [mEh/K]

  ==> Thermochemistry Energy Analysis <==

  Raw electronic energy, E0
  Total E0, Electronic energy at well bottom at 0 [K]                -4924.18310027 [Eh]

  Zero-point energy, ZPE_vib = Sum_i nu_i / 2
    Electronic ZPE          0.000 [kcal/mol]        0.000 [kJ/mol]       0.00000000 [Eh]
    Translational ZPE       0.000 [kcal/mol]        0.000 [kJ/mol]       0.00000000 [Eh]
    Rotational ZPE          0.000 [kcal/mol]        0.000 [kJ/mol]       0.00000000 [Eh]
    Vibrational ZPE         0.905 [kcal/mol]        3.785 [kJ/mol]       0.00144153 [Eh]         316.380 [cm^-1]
  Correction ZPE            0.905 [kcal/mol]        3.785 [kJ/mol]       0.00144153 [Eh]         316.380 [cm^-1]
  Total ZPE, Electronic energy at 0 [K]                              -4924.18165874 [Eh]

  Thermal Energy, E (includes ZPE)
    Electronic E            0.000 [kcal/mol]        0.000 [kJ/mol]       0.00000000 [Eh]
    Translational E         0.889 [kcal/mol]        3.718 [kJ/mol]       0.00141628 [Eh]
    Rotational E            0.889 [kcal/mol]        3.718 [kJ/mol]       0.00141628 [Eh]
    Vibrational E           1.933 [kcal/mol]        8.087 [kJ/mol]       0.00308021 [Eh]
  Correction E              3.710 [kcal/mol]       15.524 [kJ/mol]       0.00591276 [Eh]
  Total E, Electronic energy at  298.15 [K]                          -4924.17718750 [Eh]

  Enthalpy, H_trans = E_trans + k_B * T
    Electronic H            0.000 [kcal/mol]        0.000 [kJ/mol]       0.00000000 [Eh]
    Translational H         1.481 [kcal/mol]        6.197 [kJ/mol]       0.00236046 [Eh]
    Rotational H            0.889 [kcal/mol]        3.718 [kJ/mol]       0.00141628 [Eh]
    Vibrational H           1.933 [kcal/mol]        8.087 [kJ/mol]       0.00308021 [Eh]
  Correction H              4.303 [kcal/mol]       18.003 [kJ/mol]       0.00685695 [Eh]
  Total H, Enthalpy at  298.15 [K]                                   -4924.17624332 [Eh]

  Gibbs free energy, G = H - T * S
    Electronic G            0.000 [kcal/mol]        0.000 [kJ/mol]       0.00000000 [Eh]
    Translational G       -10.925 [kcal/mol]      -45.712 [kJ/mol]      -0.01741082 [Eh]
    Rotational G           -7.011 [kcal/mol]      -29.334 [kJ/mol]      -0.01117270 [Eh]
    Vibrational G           0.079 [kcal/mol]        0.329 [kJ/mol]       0.00012517 [Eh]
  Correction G            -17.858 [kcal/mol]      -74.717 [kJ/mol]      -0.02845836 [Eh]
  Total G, Free enthalpy at  298.15 [K]                              -4924.21155863 [Eh]

    Psi4 stopped on: Friday, 29 October 2021 08:25AM
    Psi4 wall time for execution: 0:01:29.63

*** Psi4 exiting successfully. Buy a developer a beer!
