
                                 *****************
                                 * O   R   C   A *
                                 *****************

           --- An Ab Initio, DFT and Semiempirical electronic structure package ---

                  #######################################################
                  #                        -***-                        #
                  #          Department of theory and spectroscopy      #
                  #               Directorship: Frank Neese             #
                  #        Max Planck Institute fuer Kohlenforschung    #
                  #                Kaiser Wilhelm Platz 1               #
                  #                 D-45470 Muelheim/Ruhr               #
                  #                      Germany                        #
                  #                                                     #
                  #                  All rights reserved                #
                  #                        -***-                        #
                  #######################################################


                         Program Version 4.2.0 -  RELEASE  -


 With contributions from (in alphabetic order):
   Daniel Aravena         : Magnetic Suceptibility
   Michael Atanasov       : Ab Initio Ligand Field Theory (pilot matlab implementation)
   Alexander A. Auer      : GIAO ZORA, VPT2
   Ute Becker             : Parallelization
   Giovanni Bistoni       : ED, misc. LED, open-shell LED, HFLED
   Martin Brehm           : Molecular dynamics
   Dmytro Bykov           : SCF Hessian
   Vijay G. Chilkuri      : MRCI spin determinant printing, contributions to CSF-ICE
   Dipayan Datta          : RHF DLPNO-CCSD density
   Achintya Kumar Dutta   : EOM-CC, STEOM-CC
   Dmitry Ganyushin       : Spin-Orbit,Spin-Spin,Magnetic field MRCI
   Miquel Garcia          : C-PCM Hessian, Gaussian charge scheme
   Yang Guo               : DLPNO-NEVPT2, CIM, IAO-localization
   Andreas Hansen         : Spin unrestricted coupled pair/coupled cluster methods
   Benjamin Helmich-Paris : CASSCF linear response (MC-RPA)
   Lee Huntington         : MR-EOM, pCC
   Robert Izsak           : Overlap fitted RIJCOSX, COSX-SCS-MP3, EOM
   Christian Kollmar      : KDIIS, OOCD, Brueckner-CCSD(T), CCSD density
   Simone Kossmann        : Meta GGA functionals, TD-DFT gradient, OOMP2, MP2 Hessian
   Martin Krupicka        : AUTO-CI
   Lucas Lang             : DCDCAS
   Dagmar Lenk            : GEPOL surface, SMD
   Dimitrios Liakos       : Extrapolation schemes; Compound Job, initial MDCI parallelization
   Dimitrios Manganas     : Further ROCIS development; embedding schemes
   Dimitrios Pantazis     : SARC Basis sets
   Taras Petrenko         : DFT Hessian,TD-DFT gradient, ASA, ECA, R-Raman, ABS, FL, XAS/XES, NRVS
   Peter Pinski           : DLPNO-MP2, DLPNO-MP2 Gradient
   Christoph Reimann      : Effective Core Potentials
   Marius Retegan         : Local ZFS, SOC
   Christoph Riplinger    : Optimizer, TS searches, QM/MM, DLPNO-CCSD(T), (RO)-DLPNO pert. Triples
   Tobias Risthaus        : Range-separated hybrids, TD-DFT gradient, RPA, STAB
   Michael Roemelt        : Original ROCIS implementation
   Masaaki Saitow         : Open-shell DLPNO-CCSD energy and density
   Barbara Sandhoefer     : DKH picture change effects
   Avijit Sen             : IP-ROCIS
   Kantharuban Sivalingam : CASSCF convergence, NEVPT2, FIC-MRCI
   Bernardo de Souza      : ESD, SOC TD-DFT
   Georgi Stoychev        : AutoAux, RI-MP2 NMR
   Willem Van den Heuvel  : Paramagnetic NMR
   Boris Wezisla          : Elementary symmetry handling
   Frank Wennmohs         : Technical directorship


 We gratefully acknowledge several colleagues who have allowed us to
 interface, adapt or use parts of their codes:
   Stefan Grimme, W. Hujo, H. Kruse,             : VdW corrections, initial TS optimization,
                  C. Bannwarth                     DFT functionals, gCP, sTDA/sTD-DF
   Ed Valeev, F. Pavosevic, A. Kumar             : LibInt (2-el integral package), F12 methods
   Garnet Chan, S. Sharma, J. Yang, R. Olivares  : DMRG
   Ulf Ekstrom                                   : XCFun DFT Library
   Mihaly Kallay                                 : mrcc  (arbitrary order and MRCC methods)
   Andreas Klamt, Michael Diedenhofen            : otool_cosmo (COSMO solvation model)
   Jiri Pittner, Ondrej Demel                    : Mk-CCSD
   Frank Weinhold                                : gennbo (NPA and NBO analysis)
   Christopher J. Cramer and Donald G. Truhlar   : smd solvation model
   Lars Goerigk                                  : TD-DFT with DH, B97 family of functionals
   V. Asgeirsson, H. Jonsson                     : NEB implementation
   FAccTs GmbH                                   : IRC, NEB, NEB-TS, Multilevel, MM, QM/MM, CI optimization
   S Lehtola, MJT Oliveira, MAL Marques          : LibXC Library


 Your calculation uses the libint2 library for the computation of 2-el integrals
 For citations please refer to: http://libint.valeyev.net

 Your ORCA version has been built with support for libXC version: 4.2.3
 For citations please refer to: https://tddft.org/programs/libxc/

 This ORCA versions uses:
   CBLAS   interface :  Fast vector & matrix operations
   LAPACKE interface :  Fast linear algebra routines
   SCALAPACK package :  Parallel linear algebra routines


Your calculation utilizes the DFT-NL dispersion correction.
Cite in your paper:
Vydrov, O. A.; Van Voorhis, T. J. Chem. Phys. 2010, 133, 244103
Hujo, W.; Grimme, S. J. Chem. Theory Comput. 2011, 7, 3866 
   

----- Orbital basis set information -----
Your calculation utilizes the basis: def2-TZVPPD
   F. Weigend and R. Ahlrichs, Phys. Chem. Chem. Phys. 7, 3297 (2005).
   D. Rappoport and F. Furche, J. Chem. Phys. 133 134105 (2010).

----- AuxJK basis set information -----
Your calculation utilizes the auxiliary basis: def2/JK
   H-Ba, Hf-Rn: F. Weigend, J. Comput. Chem. 29, 167 (2008).

cite the ECPs for Ag [Def2-ECP] as follows:
Ce-Yb(ecp-28): M. Dolg, H. Stoll, H.Preuss, J. Chem. Phys., 1989, 90, 1730-1734.
Y-Cd(ecp-28), Hf-Hg(ecp-46): D. Andrae,U. Haeussermann, M. Dolg, H. Stoll, H. Preuss, Theor. Chim. Acta, 1990, 77, 123-141.
In-Sb(ecp-28), Tl-Bi(ecp-46): B. Metz, H. Stoll, M. Dolg, J. Chem. Phys., 2000, 113, 2563-2569.
Te-Xe(ecp-28), Po-Rn(ecp-46): K. A. Peterson, D. Figgen, E. Goll, H. Stoll, M. Dolg, J. Chem. Phys., 2003, 119, 11113-11123.
Rb(ecp-28), Cs(ecp-46): T. Leininger, A. Nicklass, W. Kuechle, H. Stoll, M. Dolg, A. Bergner, Chem. Phys. Lett., 1996, 255, 274-280.
Sr(ecp-28), Ba(ecp-46): M. Kaupp, P. V. Schleyer, H. Stoll and H. Preuss, J. Chem. Phys., 1991, 94, 1360-1366.
La(ecp-46): M. Dolg, H. Stoll, A. Savin, H. Preuss, Theor. Chim. Acta, 1989, 75, 173-194.
Lu(ecp-28): X. Cao, M. Dolg, J. Chem. Phys., 2001, 115, 7348-7355.

ECP parameters for Ag [Def2-ECP] have been obtained from:
TURBOMOLE (7.0.2)

================================================================================
                                        WARNINGS
                       Please study these warnings very carefully!
================================================================================


WARNING: your system is open-shell and RHF/RKS was chosen
  ===> : WILL SWITCH to UHF/UKS


INFO   : the flag for use of LIBINT has been found!

================================================================================
                                       INPUT FILE
================================================================================
NAME = Ag04C2_H_A.in
|  1> #
|  2> # Ag04C2_H_A wB97X-V/Def2-TZVPPD
|  3> #
|  4> ! wb97x-v def2-tzvppd def2/jk grid4 nofinalgrid
|  5> 
|  6> *xyz 2 2
|  7> Ag       0.000000    0.000000    1.733523 
|  8> Ag       0.000000    1.616553   -0.602470 
|  9> Ag      -1.399976   -0.808277   -0.602470 
| 10> Ag       1.399976   -0.808277   -0.602470 
| 11> H        0.000000    0.000000    3.472645 
| 12> *
| 13> 
| 14> %maxcore 5000
| 15> 
| 16> %pal
| 17> nprocs = 24
| 18> end
| 19> 
| 20> 
| 21>                          ****END OF INPUT****
================================================================================

                       ****************************
                       * Single Point Calculation *
                       ****************************

---------------------------------
CARTESIAN COORDINATES (ANGSTROEM)
---------------------------------
  Ag     0.000000    0.000000    1.733523
  Ag     0.000000    1.616553   -0.602470
  Ag    -1.399976   -0.808277   -0.602470
  Ag     1.399976   -0.808277   -0.602470
  H      0.000000    0.000000    3.472645

----------------------------
CARTESIAN COORDINATES (A.U.)
----------------------------
  NO LB      ZA    FRAG     MASS         X           Y           Z
   0 Ag   19.0000*   0   107.870    0.000000    0.000000    3.275884
   1 Ag   19.0000*   0   107.870    0.000000    3.054842   -1.138503
   2 Ag   19.0000*   0   107.870   -2.645571   -1.527422   -1.138503
   3 Ag   19.0000*   0   107.870    2.645571   -1.527422   -1.138503
   4 H     1.0000    0     1.008    0.000000    0.000000    6.562348
* core charge reduced due to ECP

--------------------------------
INTERNAL COORDINATES (ANGSTROEM)
--------------------------------
 Ag     0   0   0     0.000000000000     0.00000000     0.00000000
 Ag     1   0   0     2.840793357120     0.00000000     0.00000000
 Ag     2   1   0     2.799952379859    60.47444948     0.00000000
 Ag     3   2   1     2.799952000000    60.00000449   289.08611978
 H      1   2   3     1.739122000000   145.31600538   215.07321588

---------------------------
INTERNAL COORDINATES (A.U.)
---------------------------
 Ag     0   0   0     0.000000000000     0.00000000     0.00000000
 Ag     1   0   0     5.368321448020     0.00000000     0.00000000
 Ag     2   1   0     5.291143185954    60.47444948     0.00000000
 Ag     3   2   1     5.291142468125    60.00000449   289.08611978
 H      1   2   3     3.286464293477   145.31600538   215.07321588

---------------------
BASIS SET INFORMATION
---------------------
There are 2 groups of distinct atoms

 Group   1 Type Ag  : 7s7p6d2f1g contracted to 6s4p3d2f1g pattern {211111/4111/411/11/1}
 Group   2 Type H   : 5s3p1d contracted to 3s3p1d pattern {311/111/1}

Atom   0Ag   basis set group =>   1
Atom   1Ag   basis set group =>   1
Atom   2Ag   basis set group =>   1
Atom   3Ag   basis set group =>   1
Atom   4H    basis set group =>   2
----------------------------------
AUXILIARY/JK BASIS SET INFORMATION
----------------------------------
There are 2 groups of distinct atoms

 Group   1 Type Ag  : 13s12p10d9f6g3h2i contracted to 11s10p9d8f6g3h2i pattern {31111111111/3111111111/211111111/21111111/111111/111/11}
 Group   2 Type H   : 4s2p2d contracted to 2s2p2d pattern {31/11/11}

Atom   0Ag   basis set group =>   1
Atom   1Ag   basis set group =>   1
Atom   2Ag   basis set group =>   1
Atom   3Ag   basis set group =>   1
Atom   4H    basis set group =>   2
-------------------------
ECP PARAMETER INFORMATION
-------------------------

 Group 1, Type Ag ECP Def2-ECP (replacing 28 core electrons, lmax=3)

Atom   0Ag   ECP group =>   1
Atom   1Ag   ECP group =>   1
Atom   2Ag   ECP group =>   1
Atom   3Ag   ECP group =>   1



           ************************************************************
           *        Program running with 24 parallel MPI-processes    *
           *              working on a common directory               *
           ************************************************************
------------------------------------------------------------------------------
                           ORCA GTO INTEGRAL CALCULATION
------------------------------------------------------------------------------

                         BASIS SET STATISTICS AND STARTUP INFO

 # of primitive gaussian shells          ...  101
 # of primitive gaussian functions       ...  343
 # of contracted shells                  ...   71
 # of contracted basis functions         ...  241
 Highest angular momentum                ...    4
 Maximum contraction depth               ...    4
 Integral package used                   ... LIBINT
 Integral threshhold            Thresh   ...  1.000e-10
 Primitive cut-off              TCut     ...  1.000e-11


------------------------------ INTEGRAL EVALUATION ----------------------------


 * One electron integrals 

   ECP integrals                         ... done
 Pre-screening matrix                    ... done
 Shell pair data                         ... done (   0.001 sec)



           ************************************************************
           *        Program running with 24 parallel MPI-processes    *
           *              working on a common directory               *
           ************************************************************
-------------------------------------------------------------------------------
                                 ORCA SCF
-------------------------------------------------------------------------------

------------
SCF SETTINGS
------------
Hamiltonian:
 Density Functional     Method          .... DFT(GTOs)
 Exchange Functional    Exchange        .... WB97X-V
 Correlation Functional Correlation     .... WB97X-V
 Gradients option       PostSCFGGA      .... off
 Hybrid DFT is turned on
   Fraction HF Exchange ScalHFX         ....  0.167000
   Scaling of DF-GGA-X  ScalDFX         ....  0.000000
   Scaling of DF-GGA-C  ScalDFC         ....  1.000000
   Scaling of DF-LDA-C  ScalLDAC        ....  1.000000
   Perturbative correction              ....  0.000000
   Density functional embedding theory  .... OFF
 Long-range corrected/Screened/Range-Separated Hybrid DFT is turned on
   Amount of maximum screened exact exchange              ....  0.833000
   Range separation parameter mu (erf(mu*r12)/r12)        ....  0.300000
   NL short-range parameter             ....  6.000000
   NL long-range parameter              ....  0.010000


General Settings:
 Integral files         IntName         .... Ag04C2_H_A
 Hartree-Fock type      HFTyp           .... UHF
 Total Charge           Charge          ....    2
 Multiplicity           Mult            ....    2
 Number of Electrons    NEL             ....   75
 Basis Dimension        Dim             ....  241
 Nuclear Repulsion      ENuc            ....    419.0822000634 Eh

Convergence Acceleration:
 DIIS                   CNVDIIS         .... on
   Start iteration      DIISMaxIt       ....    12
   Startup error        DIISStart       ....  0.200000
   # of expansion vecs  DIISMaxEq       ....     5
   Bias factor          DIISBfac        ....   1.050
   Max. coefficient     DIISMaxC        ....  10.000
 Newton-Raphson         CNVNR           .... off
 SOSCF                  CNVSOSCF        .... off
 Level Shifting         CNVShift        .... on
   Level shift para.    LevelShift      ....    0.2500
   Turn off err/grad.   ShiftErr        ....    0.0010
 Zerner damping         CNVZerner       .... off
 Static damping         CNVDamp         .... on
   Fraction old density DampFac         ....    0.7000
   Max. Damping (<1)    DampMax         ....    0.9800
   Min. Damping (>=0)   DampMin         ....    0.0000
   Turn off err/grad.   DampErr         ....    0.1000
 Fernandez-Rico         CNVRico         .... off

SCF Procedure:
 Maximum # iterations   MaxIter         ....   125
 SCF integral mode      SCFMode         .... Direct
   Integral package                     .... LIBINT
 Reset frequency        DirectResetFreq ....    20
 Integral Threshold     Thresh          ....  1.000e-10 Eh
 Primitive CutOff       TCut            ....  1.000e-11 Eh

Convergence Tolerance:
 Convergence Check Mode ConvCheckMode   .... Total+1el-Energy
 Convergence forced     ConvForced      .... 0
 Energy Change          TolE            ....  1.000e-06 Eh
 1-El. energy change                    ....  1.000e-03 Eh
 DIIS Error             TolErr          ....  1.000e-06


Diagonalization of the overlap matrix:
Smallest eigenvalue                        ... 1.402e-03
Time for diagonalization                   ...    0.011 sec
Threshold for overlap eigenvalues          ... 1.000e-08
Number of eigenvalues below threshold      ... 0
Time for construction of square roots      ...    0.007 sec
Total time needed                          ...    0.019 sec

-------------------
DFT GRID GENERATION
-------------------

General Integration Accuracy     IntAcc      ...  4.670
Radial Grid Type                 RadialGrid  ... Gauss-Chebyshev
Angular Grid (max. acc.)         AngularGrid ... Lebedev-302
Angular grid pruning method      GridPruning ... 3 (G Style)
Weight generation scheme         WeightScheme... Becke
Basis function cutoff            BFCut       ...    1.0000e-10
Integration weight cutoff        WCut        ...    1.0000e-14
Grids for H and He will be reduced by one unit

# of grid points (after initial pruning)     ...  46026 (   0.0 sec)
# of grid points (after weights+screening)   ...  45291 (   0.0 sec)
nearest neighbour list constructed           ...    0.0 sec
Grid point re-assignment to atoms done       ...    0.0 sec
Grid point division into batches done        ...    0.3 sec
Reduced shell lists constructed in    0.3 sec

Total number of grid points                  ...    45291
Total number of batches                      ...      711
Average number of points per batch           ...       63
Average number of grid points per atom       ...     9058
Average number of shells per batch           ...    44.90 (63.24%)
Average number of basis functions per batch  ...   149.48 (62.03%)
Average number of large shells per batch     ...    35.81 (79.74%)
Average number of large basis fcns per batch ...   113.87 (76.18%)
Maximum spatial batch extension              ...   5.57,  5.99,  3.19 au
Average spatial batch extension              ...   0.12,  0.12,  0.09 au

Time for grid setup =    0.394 sec

------------------------------
INITIAL GUESS: MODEL POTENTIAL
------------------------------
Loading Hartree-Fock densities                     ... done
  calling /sw/apps/orca/orca_4_2_0_linux_x86-64_openmpi314/orca Ag04C2_H_A_atom47.inp > Ag04C2_H_A_atom47.out in order to generate an atomic fitting density for atom 0 (Ag with ECP) on-the-fly... 
    atom 0 (Ag), assumed electronic state with S=2: 1s2 2s2 2p6 3s2 3p6 4s2 3d10 4p6 5s2 4d9           ... done
Calculating cut-offs                               ... done
Setting up the integral package                    ... done
Initializing the effective Hamiltonian             ... done
Starting the Coulomb interaction                   ... done (   0.0 sec)
Reading the grid                                   ... done
Mapping shells                                     ... done
Starting the XC term evaluation                    ... done (   0.0 sec)
  promolecular density results
     # of electrons  =    189.001407544
     EX              =   -450.286044182
     EC              =    -13.072108847
     EX+EC           =   -463.358153029
Transforming the Hamiltonian                       ... done (   0.0 sec)
Diagonalizing the Hamiltonian                      ... done (   0.0 sec)
Back transforming the eigenvectors                 ... done (   0.0 sec)
Now organizing SCF variables                       ... done
                      ------------------
                      INITIAL GUESS DONE (   1.8 sec)
                      ------------------
--------------
SCF ITERATIONS
--------------
ITER       Energy         Delta-E        Max-DP      RMS-DP      [F,P]     Damp
               ***  Starting incremental Fock matrix formation  ***
  0   -587.6503945864   0.000000000000 0.05921821  0.00091704  0.3654534 0.7000
  1   -587.8217035554  -0.171308969005 0.04193359  0.00070969  0.2747464 0.7000
  2   -587.9068807897  -0.085177234317 0.01969546  0.00049801  0.2046675 0.7000
                               ***Turning on DIIS***
  3   -587.9604228520  -0.053542062295 0.01390416  0.00036312  0.1495151 0.7000
  4   -587.9987712880  -0.038348435934 0.01242852  0.00029886  0.1063301 0.7000
  5   -588.0268333151  -0.028062027154 0.04860214  0.00078796  0.0730828 0.0000
  6   -588.1000206301  -0.073187314972 0.01804787  0.00012251  0.0103846 0.0000
  7   -588.1018519594  -0.001831329318 0.01812704  0.00011812  0.0083995 0.0000
  8   -588.1030920819  -0.001240122476 0.01306305  0.00009087  0.0072189 0.0000
  9   -588.1037740268  -0.000681944906 0.00790360  0.00006093  0.0042675 0.0000
 10   -588.1040259637  -0.000251936854 0.00340969  0.00003394  0.0025993 0.0000
 11   -588.1041033026  -0.000077338992 0.00197308  0.00001761  0.0013130 0.0000
 12   -588.1041230232  -0.000019720525 0.00152172  0.00001279  0.0006436 0.0000
 13   -588.1041289079  -0.000005884704 0.00026417  0.00000219  0.0002255 0.0000
 14   -588.1041292377  -0.000000329788 0.00013951  0.00000127  0.0001065 0.0000
                 **** Energy Check signals convergence ****

               *****************************************************
               *                     SUCCESS                       *
               *           SCF CONVERGED AFTER  15 CYCLES          *
               *****************************************************


Setting up the DFT-NL grid :

General Integration Accuracy     IntAcc      ...  4.340
Radial Grid Type                 RadialGrid  ... Gauss-Chebyshev
Angular Grid (max. acc.)         AngularGrid ... Lebedev-110
Angular grid pruning method      GridPruning ... 3 (G Style)
Weight generation scheme         WeightScheme... Becke
Basis function cutoff            BFCut       ...    1.0000e-10
Integration weight cutoff        WCut        ...    1.0000e-14
Grids for H and He will be reduced by one unit

# of grid points (after initial pruning)     ...  13826 (   0.0 sec)
# of grid points (after weights+screening)   ...  13629 (   0.0 sec)
nearest neighbour list constructed           ...    0.0 sec
Grid point re-assignment to atoms done       ...    0.0 sec
Grid point division into batches done        ...    0.0 sec
Reduced shell lists constructed in    0.0 sec

Total number of grid points                  ...    13629
Total number of batches                      ...      216
Average number of points per batch           ...       63
Average number of grid points per atom       ...     2726
Average number of shells per batch           ...    45.20 (63.66%)
Average number of basis functions per batch  ...   152.20 (63.15%)
Average number of large shells per batch     ...    37.40 (82.74%)
Average number of large basis fcns per batch ...   122.40 (80.42%)
Maximum spatial batch extension              ...   5.65,  7.31,  3.11 au
Average spatial batch extension              ...   0.17,  0.20,  0.11 au

Final grid set up in    0.0 sec

-------------------------------------------------------------------------------
                         DFT-NL dispersion correction                          
-------------------------------------------------------------------------------

SC Energy -588.104129344 
NL    Energy 0.285724024 
SC+NL Energy -587.818405320 
NL done in    0.0 sec
-------------------------------------------------------------------------------

----------------
TOTAL SCF ENERGY
----------------

Total Energy       :         -587.81840532 Eh          -15995.35200 eV

Components:
Nuclear Repulsion  :          419.08220006 Eh           11403.80642 eV
Electronic Energy  :        -1006.90060538 Eh          -27399.15842 eV
One Electron Energy:        -1854.62635148 Eh          -50466.94871 eV
Two Electron Energy:          847.72574609 Eh           23067.79030 eV

Virial components:
Potential Energy   :         -813.66341866 Eh          -22140.90724 eV
Kinetic Energy     :          225.84501334 Eh            6145.55525 eV
Virial Ratio       :            3.60275131


DFT components:
N(Alpha)           :       37.999991165203 electrons
N(Beta)            :       36.999992943906 electrons
N(Total)           :       74.999984109109 electrons
E(X)               :      -34.444149987770 Eh       
E(C)               :       -3.563385614970 Eh       
NL Energy, E(C,NL) :        0.285724024422 Eh       
E(XC)              :      -37.721811578317 Eh       
DFET-embed. en.    :        0.000000000000 Eh       

---------------
SCF CONVERGENCE
---------------

  Last Energy change         ...   -1.0640e-07  Tolerance :   1.0000e-06
  Last MAX-Density change    ...    7.4874e-05  Tolerance :   1.0000e-05
  Last RMS-Density change    ...    6.4049e-07  Tolerance :   1.0000e-06
  Last DIIS Error            ...    5.1784e-05  Tolerance :   1.0000e-06

             **** THE GBW FILE WAS UPDATED (Ag04C2_H_A.gbw) ****
             **** DENSITY FILE WAS UPDATED (Ag04C2_H_A.scfp) ****
             **** ENERGY FILE WAS UPDATED (Ag04C2_H_A.en.tmp) ****
----------------------
UHF SPIN CONTAMINATION
----------------------

Warning: in a DFT calculation there is little theoretical justification to 
         calculate <S**2> as in Hartree-Fock theory. We will do it anyways
         but you should keep in mind that the values have only limited relevance

Expectation value of <S**2>     :     0.757083
Ideal value S*(S+1) for S=0.5   :     0.750000
Deviation                       :     0.007083

             **** THE GBW FILE WAS UPDATED (Ag04C2_H_A.gbw) ****
             **** DENSITY FILE WAS UPDATED (Ag04C2_H_A.scfp) ****
----------------
ORBITAL ENERGIES
----------------
                 SPIN UP ORBITALS
  NO   OCC          E(Eh)            E(eV) 
   0   1.0000      -4.228529      -115.0641 
   1   1.0000      -4.209056      -114.5342 
   2   1.0000      -4.208838      -114.5283 
   3   1.0000      -4.208836      -114.5282 
   4   1.0000      -2.832671       -77.0809 
   5   1.0000      -2.823044       -76.8189 
   6   1.0000      -2.823043       -76.8189 
   7   1.0000      -2.810188       -76.4691 
   8   1.0000      -2.808545       -76.4244 
   9   1.0000      -2.808543       -76.4243 
  10   1.0000      -2.807578       -76.3981 
  11   1.0000      -2.807477       -76.3953 
  12   1.0000      -2.807472       -76.3952 
  13   1.0000      -2.806639       -76.3725 
  14   1.0000      -2.806505       -76.3689 
  15   1.0000      -2.806504       -76.3689 
  16   1.0000      -0.895421       -24.3657 
  17   1.0000      -0.843035       -22.9402 
  18   1.0000      -0.843022       -22.9398 
  19   1.0000      -0.843019       -22.9397 
  20   1.0000      -0.832330       -22.6489 
  21   1.0000      -0.832325       -22.6487 
  22   1.0000      -0.827560       -22.5191 
  23   1.0000      -0.819987       -22.3130 
  24   1.0000      -0.819980       -22.3128 
  25   1.0000      -0.815417       -22.1886 
  26   1.0000      -0.801606       -21.8128 
  27   1.0000      -0.801602       -21.8127 
  28   1.0000      -0.794382       -21.6162 
  29   1.0000      -0.793133       -21.5823 
  30   1.0000      -0.793125       -21.5820 
  31   1.0000      -0.790675       -21.5153 
  32   1.0000      -0.790658       -21.5149 
  33   1.0000      -0.778143       -21.1743 
  34   1.0000      -0.778139       -21.1742 
  35   1.0000      -0.770941       -20.9784 
  36   1.0000      -0.736809       -20.0496 
  37   1.0000      -0.694959       -18.9108 
  38   0.0000      -0.359025        -9.7696 
  39   0.0000      -0.359023        -9.7695 
  40   0.0000      -0.329617        -8.9693 
  41   0.0000      -0.246324        -6.7028 
  42   0.0000      -0.238495        -6.4898 
  43   0.0000      -0.238494        -6.4897 
  44   0.0000      -0.228035        -6.2052 
  45   0.0000      -0.228035        -6.2052 
  46   0.0000      -0.163259        -4.4425 
  47   0.0000      -0.133944        -3.6448 
  48   0.0000      -0.133944        -3.6448 
  49   0.0000      -0.133422        -3.6306 
  50   0.0000      -0.129264        -3.5174 
  51   0.0000      -0.129264        -3.5174 
  52   0.0000      -0.123474        -3.3599 
  53   0.0000      -0.082372        -2.2415 
  54   0.0000      -0.056023        -1.5245 
  55   0.0000      -0.052597        -1.4312 
  56   0.0000      -0.038825        -1.0565 
  57   0.0000      -0.038824        -1.0565 
  58   0.0000      -0.032959        -0.8969 
  59   0.0000      -0.032959        -0.8968 
  60   0.0000      -0.022044        -0.5998 
  61   0.0000      -0.022043        -0.5998 
  62   0.0000       0.004711         0.1282 
  63   0.0000       0.012351         0.3361 
  64   0.0000       0.012352         0.3361 
  65   0.0000       0.062650         1.7048 
  66   0.0000       0.062651         1.7048 
  67   0.0000       0.065936         1.7942 
  68   0.0000       0.099054         2.6954 
  69   0.0000       0.104066         2.8318 
  70   0.0000       0.104073         2.8320 
  71   0.0000       0.132212         3.5977 
  72   0.0000       0.159560         4.3418 
  73   0.0000       0.159562         4.3419 
  74   0.0000       0.188345         5.1251 
  75   0.0000       0.238105         6.4792 
  76   0.0000       0.260857         7.0983 
  77   0.0000       0.260861         7.0984 
  78   0.0000       0.283550         7.7158 
  79   0.0000       0.285753         7.7757 
  80   0.0000       0.296280         8.0622 
  81   0.0000       0.296282         8.0622 
  82   0.0000       0.367445         9.9987 
  83   0.0000       0.367449         9.9988 
  84   0.0000       0.386323        10.5124 
  85   0.0000       0.386324        10.5124 
  86   0.0000       0.400411        10.8957 
  87   0.0000       0.431098        11.7308 
  88   0.0000       0.431112        11.7312 
  89   0.0000       0.467580        12.7235 
  90   0.0000       0.467584        12.7236 
  91   0.0000       0.479395        13.0450 
  92   0.0000       0.503240        13.6938 
  93   0.0000       0.719702        19.5841 
  94   0.0000       0.719702        19.5841 
  95   0.0000       0.814556        22.1652 
  96   0.0000       1.270630        34.5756 
  97   0.0000       1.270646        34.5760 
  98   0.0000       1.293050        35.1857 
  99   0.0000       1.293070        35.1862 
 100   0.0000       1.296660        35.2839 
 101   0.0000       1.303403        35.4674 
 102   0.0000       1.312178        35.7062 
 103   0.0000       1.312178        35.7062 
 104   0.0000       1.315973        35.8094 
 105   0.0000       1.320767        35.9399 
 106   0.0000       1.323262        36.0078 
 107   0.0000       1.323270        36.0080 
 108   0.0000       1.329403        36.1749 
 109   0.0000       1.329416        36.1752 
 110   0.0000       1.330555        36.2062 
 111   0.0000       1.336817        36.3767 
 112   0.0000       1.336829        36.3770 
 113   0.0000       1.343577        36.5606 
 114   0.0000       1.351666        36.7807 
 115   0.0000       1.366919        37.1958 
 116   0.0000       1.366921        37.1958 
 117   0.0000       1.369728        37.2722 
 118   0.0000       1.370067        37.2814 
 119   0.0000       1.370068        37.2815 
 120   0.0000       1.392947        37.9040 
 121   0.0000       1.392967        37.9045 
 122   0.0000       1.402167        38.1549 
 123   0.0000       1.410976        38.3946 
 124   0.0000       1.410996        38.3951 
 125   0.0000       1.428891        38.8821 
 126   0.0000       1.491104        40.5750 
 127   0.0000       1.491106        40.5751 
 128   0.0000       1.498373        40.7728 
 129   0.0000       1.503033        40.8996 
 130   0.0000       1.503035        40.8997 
 131   0.0000       1.552034        42.2330 
 132   0.0000       1.636923        44.5429 
 133   0.0000       1.636933        44.5432 
 134   0.0000       1.642512        44.6950 
 135   0.0000       1.693252        46.0757 
 136   0.0000       1.766096        48.0579 
 137   0.0000       1.829682        49.7882 
 138   0.0000       1.829698        49.7886 
 139   0.0000       1.832490        49.8646 
 140   0.0000       1.848838        50.3094 
 141   0.0000       1.848875        50.3105 
 142   0.0000       1.855066        50.4789 
 143   0.0000       1.861124        50.6438 
 144   0.0000       1.861165        50.6449 
 145   0.0000       1.930045        52.5192 
 146   0.0000       1.930068        52.5198 
 147   0.0000       1.943431        52.8835 
 148   0.0000       1.943499        52.8853 
 149   0.0000       1.948139        53.0116 
 150   0.0000       1.948164        53.0122 
 151   0.0000       1.950431        53.0739 
 152   0.0000       1.952336        53.1258 
 153   0.0000       1.961937        53.3870 
 154   0.0000       2.021419        55.0056 
 155   0.0000       2.021474        55.0071 
 156   0.0000       2.314715        62.9866 
 157   0.0000       2.381421        64.8018 
 158   0.0000       2.484272        67.6005 
 159   0.0000       2.484275        67.6006 
 160   0.0000       2.592425        70.5435 
 161   0.0000       2.933067        79.8128 
 162   0.0000       2.933118        79.8142 
 163   0.0000       3.081649        83.8559 
 164   0.0000       3.081688        83.8570 
 165   0.0000       3.499831        95.2352 
 166   0.0000       3.592620        97.7602 
 167   0.0000       3.592627        97.7603 
 168   0.0000       4.061144       110.5094 
 169   0.0000       4.536779       123.4520 
 170   0.0000       4.536830       123.4534 
 171   0.0000       4.551597       123.8553 
 172   0.0000       4.560121       124.0872 
 173   0.0000       4.560141       124.0877 
 174   0.0000       4.561003       124.1112 
 175   0.0000       4.562052       124.1397 
 176   0.0000       4.569147       124.3328 
 177   0.0000       4.569166       124.3333 
 178   0.0000       4.569849       124.3519 
 179   0.0000       4.579656       124.6188 
 180   0.0000       4.587287       124.8264 
 181   0.0000       4.587300       124.8268 
 182   0.0000       4.605871       125.3321 
 183   0.0000       4.606657       125.3535 
 184   0.0000       4.614896       125.5777 
 185   0.0000       4.614899       125.5778 
 186   0.0000       4.621318       125.7524 
 187   0.0000       4.621325       125.7527 
 188   0.0000       4.633674       126.0887 
 189   0.0000       4.633679       126.0888 
 190   0.0000       4.749205       129.2324 
 191   0.0000       4.753806       129.3576 
 192   0.0000       4.753837       129.3585 
 193   0.0000       4.754997       129.3901 
 194   0.0000       4.787813       130.2830 
 195   0.0000       4.787867       130.2845 
 196   0.0000       4.951773       134.7446 
 197   0.0000       5.292708       144.0219 
 198   0.0000       5.292751       144.0231 
 199   0.0000       5.293250       144.0366 
 200   0.0000       5.293342       144.0392 
 201   0.0000       5.293504       144.0436 
 202   0.0000       5.293592       144.0460 
 203   0.0000       5.303183       144.3070 
 204   0.0000       5.303196       144.3073 
 205   0.0000       5.303516       144.3160 
 206   0.0000       5.303583       144.3178 
 207   0.0000       5.303642       144.3194 
 208   0.0000       5.303801       144.3238 
 209   0.0000       5.304107       144.3321 
 210   0.0000       5.304290       144.3371 
 211   0.0000       5.304294       144.3372 
 212   0.0000       5.304589       144.3452 
 213   0.0000       5.304666       144.3473 
 214   0.0000       5.304786       144.3506 
 215   0.0000       5.304801       144.3510 
 216   0.0000       5.305104       144.3592 
 217   0.0000       5.305276       144.3639 
 218   0.0000       5.305324       144.3652 
 219   0.0000       5.305566       144.3718 
 220   0.0000       5.305710       144.3757 
 221   0.0000       5.306351       144.3932 
 222   0.0000       5.306422       144.3951 
 223   0.0000       5.306495       144.3971 
 224   0.0000       5.306726       144.4033 
 225   0.0000       5.307228       144.4170 
 226   0.0000       5.307264       144.4180 
 227   0.0000       5.315125       144.6319 
 228   0.0000       5.315219       144.6345 
 229   0.0000       5.321654       144.8096 
 230   0.0000       5.352415       145.6466 
 231   0.0000       5.352673       145.6536 
 232   0.0000       5.656548       153.9225 
 233   0.0000      33.173308       902.6916 
 234   0.0000      33.538931       912.6407 
 235   0.0000      33.538933       912.6408 
 236   0.0000      33.588807       913.9979 
 237   0.0000     110.550295      3008.2265 
 238   0.0000     110.669625      3011.4736 
 239   0.0000     110.669626      3011.4736 
 240   0.0000     110.674162      3011.5971 

                 SPIN DOWN ORBITALS
  NO   OCC          E(Eh)            E(eV) 
   0   1.0000      -4.224439      -114.9528 
   1   1.0000      -4.208953      -114.5314 
   2   1.0000      -4.208735      -114.5255 
   3   1.0000      -4.208733      -114.5254 
   4   1.0000      -2.824040       -76.8460 
   5   1.0000      -2.821062       -76.7650 
   6   1.0000      -2.821061       -76.7650 
   7   1.0000      -2.809953       -76.4627 
   8   1.0000      -2.808461       -76.4221 
   9   1.0000      -2.808459       -76.4221 
  10   1.0000      -2.807450       -76.3946 
  11   1.0000      -2.807419       -76.3938 
  12   1.0000      -2.807415       -76.3936 
  13   1.0000      -2.806644       -76.3727 
  14   1.0000      -2.806350       -76.3647 
  15   1.0000      -2.806349       -76.3647 
  16   1.0000      -0.866897       -23.5895 
  17   1.0000      -0.841454       -22.8971 
  18   1.0000      -0.841439       -22.8967 
  19   1.0000      -0.838536       -22.8177 
  20   1.0000      -0.831374       -22.6228 
  21   1.0000      -0.831369       -22.6227 
  22   1.0000      -0.818220       -22.2649 
  23   1.0000      -0.818212       -22.2647 
  24   1.0000      -0.814955       -22.1761 
  25   1.0000      -0.809683       -22.0326 
  26   1.0000      -0.800050       -21.7705 
  27   1.0000      -0.800046       -21.7704 
  28   1.0000      -0.794250       -21.6126 
  29   1.0000      -0.792947       -21.5772 
  30   1.0000      -0.792937       -21.5769 
  31   1.0000      -0.790426       -21.5086 
  32   1.0000      -0.790408       -21.5081 
  33   1.0000      -0.776887       -21.1402 
  34   1.0000      -0.776882       -21.1400 
  35   1.0000      -0.771023       -20.9806 
  36   1.0000      -0.697162       -18.9707 
  37   0.0000      -0.421074       -11.4580 
  38   0.0000      -0.358278        -9.7492 
  39   0.0000      -0.358276        -9.7492 
  40   0.0000      -0.310785        -8.4569 
  41   0.0000      -0.244803        -6.6614 
  42   0.0000      -0.236210        -6.4276 
  43   0.0000      -0.236209        -6.4276 
  44   0.0000      -0.226163        -6.1542 
  45   0.0000      -0.226163        -6.1542 
  46   0.0000      -0.149152        -4.0586 
  47   0.0000      -0.131215        -3.5705 
  48   0.0000      -0.131214        -3.5705 
  49   0.0000      -0.127072        -3.4578 
  50   0.0000      -0.127072        -3.4578 
  51   0.0000      -0.123442        -3.3590 
  52   0.0000      -0.121408        -3.3037 
  53   0.0000      -0.075550        -2.0558 
  54   0.0000      -0.050200        -1.3660 
  55   0.0000      -0.048789        -1.3276 
  56   0.0000      -0.037731        -1.0267 
  57   0.0000      -0.037730        -1.0267 
  58   0.0000      -0.031503        -0.8572 
  59   0.0000      -0.031502        -0.8572 
  60   0.0000      -0.021362        -0.5813 
  61   0.0000      -0.021362        -0.5813 
  62   0.0000       0.012761         0.3472 
  63   0.0000       0.021960         0.5976 
  64   0.0000       0.021960         0.5976 
  65   0.0000       0.066076         1.7980 
  66   0.0000       0.066351         1.8055 
  67   0.0000       0.066352         1.8055 
  68   0.0000       0.104786         2.8514 
  69   0.0000       0.104794         2.8516 
  70   0.0000       0.106868         2.9080 
  71   0.0000       0.135437         3.6854 
  72   0.0000       0.161189         4.3862 
  73   0.0000       0.161193         4.3863 
  74   0.0000       0.205116         5.5815 
  75   0.0000       0.260793         7.0965 
  76   0.0000       0.260798         7.0967 
  77   0.0000       0.264570         7.1993 
  78   0.0000       0.283488         7.7141 
  79   0.0000       0.290520         7.9054 
  80   0.0000       0.296600         8.0709 
  81   0.0000       0.296602         8.0710 
  82   0.0000       0.367862        10.0100 
  83   0.0000       0.367866        10.0101 
  84   0.0000       0.388862        10.5815 
  85   0.0000       0.388863        10.5815 
  86   0.0000       0.402448        10.9512 
  87   0.0000       0.433891        11.8068 
  88   0.0000       0.433907        11.8072 
  89   0.0000       0.474885        12.9223 
  90   0.0000       0.474889        12.9224 
  91   0.0000       0.479521        13.0484 
  92   0.0000       0.514135        13.9903 
  93   0.0000       0.744483        20.2584 
  94   0.0000       0.744483        20.2584 
  95   0.0000       0.844208        22.9721 
  96   0.0000       1.271532        34.6001 
  97   0.0000       1.271547        34.6005 
  98   0.0000       1.294095        35.2141 
  99   0.0000       1.294115        35.2147 
 100   0.0000       1.297499        35.3067 
 101   0.0000       1.303555        35.4715 
 102   0.0000       1.312973        35.7278 
 103   0.0000       1.312975        35.7279 
 104   0.0000       1.319918        35.9168 
 105   0.0000       1.323559        36.0159 
 106   0.0000       1.324725        36.0476 
 107   0.0000       1.324735        36.0479 
 108   0.0000       1.330041        36.1923 
 109   0.0000       1.330054        36.1926 
 110   0.0000       1.333822        36.2951 
 111   0.0000       1.337538        36.3963 
 112   0.0000       1.337550        36.3966 
 113   0.0000       1.345072        36.6013 
 114   0.0000       1.352161        36.7942 
 115   0.0000       1.367121        37.2012 
 116   0.0000       1.367122        37.2013 
 117   0.0000       1.370315        37.2882 
 118   0.0000       1.372021        37.3346 
 119   0.0000       1.372024        37.3347 
 120   0.0000       1.393858        37.9288 
 121   0.0000       1.393878        37.9294 
 122   0.0000       1.402404        38.1614 
 123   0.0000       1.413526        38.4640 
 124   0.0000       1.413547        38.4646 
 125   0.0000       1.430983        38.9390 
 126   0.0000       1.493077        40.6287 
 127   0.0000       1.493078        40.6287 
 128   0.0000       1.500254        40.8240 
 129   0.0000       1.503468        40.9114 
 130   0.0000       1.503469        40.9115 
 131   0.0000       1.571571        42.7646 
 132   0.0000       1.638939        44.5978 
 133   0.0000       1.638949        44.5981 
 134   0.0000       1.642831        44.7037 
 135   0.0000       1.701133        46.2902 
 136   0.0000       1.770771        48.1851 
 137   0.0000       1.831256        49.8310 
 138   0.0000       1.831276        49.8315 
 139   0.0000       1.833106        49.8814 
 140   0.0000       1.850187        50.3461 
 141   0.0000       1.850228        50.3473 
 142   0.0000       1.855277        50.4847 
 143   0.0000       1.861544        50.6552 
 144   0.0000       1.861584        50.6563 
 145   0.0000       1.930612        52.5346 
 146   0.0000       1.930634        52.5352 
 147   0.0000       1.943623        52.8887 
 148   0.0000       1.943690        52.8905 
 149   0.0000       1.948670        53.0260 
 150   0.0000       1.948694        53.0267 
 151   0.0000       1.950676        53.0806 
 152   0.0000       1.954171        53.1757 
 153   0.0000       1.978360        53.8339 
 154   0.0000       2.023146        55.0526 
 155   0.0000       2.023202        55.0541 
 156   0.0000       2.343668        63.7744 
 157   0.0000       2.441611        66.4396 
 158   0.0000       2.485175        67.6250 
 159   0.0000       2.485179        67.6252 
 160   0.0000       2.628192        71.5167 
 161   0.0000       2.996630        81.5424 
 162   0.0000       2.996638        81.5427 
 163   0.0000       3.139785        85.4379 
 164   0.0000       3.139825        85.4390 
 165   0.0000       3.574368        97.2635 
 166   0.0000       3.697742       100.6207 
 167   0.0000       3.697749       100.6209 
 168   0.0000       4.136651       112.5640 
 169   0.0000       4.537703       123.4772 
 170   0.0000       4.537755       123.4786 
 171   0.0000       4.551911       123.8638 
 172   0.0000       4.560399       124.0948 
 173   0.0000       4.560418       124.0953 
 174   0.0000       4.561842       124.1340 
 175   0.0000       4.562939       124.1639 
 176   0.0000       4.569380       124.3392 
 177   0.0000       4.569400       124.3397 
 178   0.0000       4.570043       124.3572 
 179   0.0000       4.579786       124.6223 
 180   0.0000       4.587947       124.8444 
 181   0.0000       4.587959       124.8447 
 182   0.0000       4.606778       125.3568 
 183   0.0000       4.606811       125.3577 
 184   0.0000       4.616267       125.6150 
 185   0.0000       4.616277       125.6153 
 186   0.0000       4.621759       125.7645 
 187   0.0000       4.621762       125.7645 
 188   0.0000       4.635208       126.1304 
 189   0.0000       4.635222       126.1308 
 190   0.0000       4.749755       129.2474 
 191   0.0000       4.754827       129.3854 
 192   0.0000       4.754856       129.3862 
 193   0.0000       4.755252       129.3970 
 194   0.0000       4.793397       130.4350 
 195   0.0000       4.793453       130.4365 
 196   0.0000       4.964622       135.0942 
 197   0.0000       5.294304       144.0653 
 198   0.0000       5.294392       144.0677 
 199   0.0000       5.294855       144.0803 
 200   0.0000       5.294973       144.0835 
 201   0.0000       5.296623       144.1284 
 202   0.0000       5.296698       144.1305 
 203   0.0000       5.303219       144.3079 
 204   0.0000       5.303229       144.3082 
 205   0.0000       5.303559       144.3172 
 206   0.0000       5.303560       144.3172 
 207   0.0000       5.303663       144.3200 
 208   0.0000       5.303863       144.3255 
 209   0.0000       5.304142       144.3330 
 210   0.0000       5.304312       144.3377 
 211   0.0000       5.304324       144.3380 
 212   0.0000       5.304654       144.3470 
 213   0.0000       5.304734       144.3491 
 214   0.0000       5.304807       144.3511 
 215   0.0000       5.304892       144.3535 
 216   0.0000       5.305229       144.3626 
 217   0.0000       5.305378       144.3667 
 218   0.0000       5.305424       144.3679 
 219   0.0000       5.305653       144.3742 
 220   0.0000       5.305806       144.3783 
 221   0.0000       5.306398       144.3944 
 222   0.0000       5.306470       144.3964 
 223   0.0000       5.306565       144.3990 
 224   0.0000       5.306841       144.4065 
 225   0.0000       5.307371       144.4209 
 226   0.0000       5.307372       144.4209 
 227   0.0000       5.315286       144.6363 
 228   0.0000       5.315379       144.6388 
 229   0.0000       5.321766       144.8126 
 230   0.0000       5.355898       145.7414 
 231   0.0000       5.356157       145.7484 
 232   0.0000       5.669231       154.2676 
 233   0.0000      33.173670       902.7014 
 234   0.0000      33.539004       912.6427 
 235   0.0000      33.539005       912.6427 
 236   0.0000      33.590280       914.0380 
 237   0.0000     110.550469      3008.2312 
 238   0.0000     110.669661      3011.4746 
 239   0.0000     110.669661      3011.4746 
 240   0.0000     110.674758      3011.6133 

                    ********************************
                    * MULLIKEN POPULATION ANALYSIS *
                    ********************************

--------------------------------------------
MULLIKEN ATOMIC CHARGES AND SPIN POPULATIONS
--------------------------------------------
   0 Ag:    0.361834    0.272828
   1 Ag:    0.483476    0.022241
   2 Ag:    0.483363    0.022233
   3 Ag:    0.483352    0.022231
   4 H :    0.187975    0.660468
Sum of atomic charges         :    2.0000000
Sum of atomic spin populations:    1.0000000

-----------------------------------------------------
MULLIKEN REDUCED ORBITAL CHARGES AND SPIN POPULATIONS
-----------------------------------------------------
CHARGE
  0 Ags       :     2.602199  s :     2.602199
      pz      :     2.195041  p :     6.216084
      px      :     2.010521
      py      :     2.010522
      dz2     :     1.881185  d :     9.817756
      dxz     :     1.973157
      dyz     :     1.973171
      dx2y2   :     1.995122
      dxy     :     1.995121
      f0      :     0.001193  f :     0.002093
      f+1     :     0.000252
      f-1     :     0.000252
      f+2     :     0.000168
      f-2     :     0.000168
      f+3     :     0.000026
      f-3     :     0.000035
      g0      :     0.000020  g :     0.000033
      g+1     :     0.000003
      g-1     :     0.000003
      g+2     :     0.000002
      g-2     :     0.000002
      g+3     :     0.000001
      g-3     :     0.000001
      g+4     :     0.000000
      g-4     :     0.000000
  1 Ags       :     2.464965  s :     2.464965
      pz      :     2.023140  p :     6.134211
      px      :     2.010778
      py      :     2.100293
      dz2     :     1.979627  d :     9.916208
      dxz     :     1.996311
      dyz     :     1.981963
      dx2y2   :     1.991908
      dxy     :     1.966399
      f0      :     0.000119  f :     0.001129
      f+1     :     0.000079
      f-1     :     0.000250
      f+2     :     0.000096
      f-2     :     0.000127
      f+3     :     0.000286
      f-3     :     0.000172
      g0      :     0.000001  g :     0.000012
      g+1     :     0.000000
      g-1     :     0.000002
      g+2     :     0.000001
      g-2     :     0.000002
      g+3     :     0.000001
      g-3     :     0.000000
      g+4     :     0.000002
      g-4     :     0.000002
  2 Ags       :     2.465034  s :     2.465034
      pz      :     2.023145  p :     6.134240
      px      :     2.077927
      py      :     2.033168
      dz2     :     1.979629  d :     9.916222
      dxz     :     1.985552
      dyz     :     1.992723
      dx2y2   :     1.972786
      dxy     :     1.985532
      f0      :     0.000119  f :     0.001129
      f+1     :     0.000207
      f-1     :     0.000122
      f+2     :     0.000119
      f-2     :     0.000104
      f+3     :     0.000286
      f-3     :     0.000172
      g0      :     0.000001  g :     0.000012
      g+1     :     0.000001
      g-1     :     0.000001
      g+2     :     0.000001
      g-2     :     0.000001
      g+3     :     0.000001
      g-3     :     0.000000
      g+4     :     0.000002
      g-4     :     0.000002
  3 Ags       :     2.465042  s :     2.465042
      pz      :     2.023145  p :     6.134243
      px      :     2.077930
      py      :     2.033169
      dz2     :     1.979629  d :     9.916222
      dxz     :     1.985552
      dyz     :     1.992723
      dx2y2   :     1.972786
      dxy     :     1.985532
      f0      :     0.000119  f :     0.001129
      f+1     :     0.000207
      f-1     :     0.000122
      f+2     :     0.000119
      f-2     :     0.000104
      f+3     :     0.000286
      f-3     :     0.000172
      g0      :     0.000001  g :     0.000012
      g+1     :     0.000001
      g-1     :     0.000001
      g+2     :     0.000001
      g-2     :     0.000001
      g+3     :     0.000001
      g-3     :     0.000000
      g+4     :     0.000002
      g-4     :     0.000002
  4 H s       :     0.800452  s :     0.800452
      pz      :     0.004463  p :     0.009737
      px      :     0.002638
      py      :     0.002636
      dz2     :     0.000801  d :     0.001836
      dxz     :     0.000491
      dyz     :     0.000491
      dx2y2   :     0.000026
      dxy     :     0.000026

SPIN
  0 Ags       :     0.113067  s :     0.113067
      pz      :     0.097610  p :     0.097037
      px      :    -0.000286
      py      :    -0.000286
      dz2     :     0.062314  d :     0.062068
      dxz     :    -0.000267
      dyz     :    -0.000267
      dx2y2   :     0.000144
      dxy     :     0.000144
      f0      :     0.000644  f :     0.000646
      f+1     :     0.000003
      f-1     :     0.000003
      f+2     :    -0.000002
      f-2     :    -0.000002
      f+3     :     0.000000
      f-3     :    -0.000000
      g0      :     0.000009  g :     0.000009
      g+1     :     0.000000
      g-1     :     0.000000
      g+2     :    -0.000000
      g-2     :    -0.000000
      g+3     :    -0.000000
      g-3     :    -0.000000
      g+4     :     0.000000
      g-4     :     0.000000
  1 Ags       :     0.014901  s :     0.014901
      pz      :     0.000432  p :     0.006224
      px      :     0.000062
      py      :     0.005730
      dz2     :     0.001682  d :     0.001110
      dxz     :    -0.000025
      dyz     :    -0.000721
      dx2y2   :     0.000560
      dxy     :    -0.000386
      f0      :     0.000005  f :     0.000005
      f+1     :    -0.000000
      f-1     :    -0.000004
      f+2     :     0.000004
      f-2     :    -0.000000
      f+3     :    -0.000000
      f-3     :     0.000001
      g0      :     0.000000  g :     0.000000
      g+1     :    -0.000000
      g-1     :    -0.000000
      g+2     :     0.000000
      g-2     :    -0.000000
      g+3     :    -0.000000
      g-3     :     0.000000
      g+4     :     0.000000
      g-4     :    -0.000000
  2 Ags       :     0.014896  s :     0.014896
      pz      :     0.000432  p :     0.006222
      px      :     0.004311
      py      :     0.001478
      dz2     :     0.001682  d :     0.001110
      dxz     :    -0.000547
      dyz     :    -0.000199
      dx2y2   :    -0.000149
      dxy     :     0.000323
      f0      :     0.000005  f :     0.000005
      f+1     :    -0.000003
      f-1     :    -0.000001
      f+2     :     0.000001
      f-2     :     0.000003
      f+3     :    -0.000000
      f-3     :     0.000001
      g0      :     0.000000  g :     0.000000
      g+1     :    -0.000000
      g-1     :    -0.000000
      g+2     :    -0.000000
      g-2     :     0.000000
      g+3     :    -0.000000
      g-3     :     0.000000
      g+4     :    -0.000000
      g-4     :     0.000000
  3 Ags       :     0.014895  s :     0.014895
      pz      :     0.000432  p :     0.006221
      px      :     0.004311
      py      :     0.001478
      dz2     :     0.001682  d :     0.001110
      dxz     :    -0.000547
      dyz     :    -0.000199
      dx2y2   :    -0.000149
      dxy     :     0.000323
      f0      :     0.000005  f :     0.000005
      f+1     :    -0.000003
      f-1     :    -0.000001
      f+2     :     0.000001
      f-2     :     0.000003
      f+3     :    -0.000000
      f-3     :     0.000001
      g0      :     0.000000  g :     0.000000
      g+1     :    -0.000000
      g-1     :    -0.000000
      g+2     :    -0.000000
      g-2     :     0.000000
      g+3     :    -0.000000
      g-3     :     0.000000
      g+4     :    -0.000000
      g-4     :     0.000000
  4 H s       :     0.658923  s :     0.658923
      pz      :    -0.000516  p :     0.001453
      px      :     0.000985
      py      :     0.000985
      dz2     :    -0.000068  d :     0.000092
      dxz     :     0.000075
      dyz     :     0.000075
      dx2y2   :     0.000004
      dxy     :     0.000004


                     *******************************
                     * LOEWDIN POPULATION ANALYSIS *
                     *******************************

-------------------------------------------
LOEWDIN ATOMIC CHARGES AND SPIN POPULATIONS
-------------------------------------------
   0 Ag:    0.420136    0.355892
   1 Ag:    0.498622    0.017795
   2 Ag:    0.498593    0.017794
   3 Ag:    0.498593    0.017794
   4 H :    0.084056    0.590726

----------------------------------------------------
LOEWDIN REDUCED ORBITAL CHARGES AND SPIN POPULATIONS
----------------------------------------------------
CHARGE
  0 Ags       :     2.379544  s :     2.379544
      pz      :     2.367264  p :     6.402589
      px      :     2.017663
      py      :     2.017662
      dz2     :     1.874877  d :     9.793855
      dxz     :     1.963676
      dyz     :     1.963686
      dx2y2   :     1.995808
      dxy     :     1.995808
      f0      :     0.002508  f :     0.003822
      f+1     :     0.000385
      f-1     :     0.000385
      f+2     :     0.000230
      f-2     :     0.000230
      f+3     :     0.000039
      f-3     :     0.000047
      g0      :     0.000039  g :     0.000054
      g+1     :     0.000003
      g-1     :     0.000003
      g+2     :     0.000003
      g-2     :     0.000003
      g+3     :     0.000001
      g-3     :     0.000001
      g+4     :     0.000000
      g-4     :     0.000000
  1 Ags       :     2.340545  s :     2.340545
      pz      :     2.040233  p :     6.221555
      px      :     2.019745
      py      :     2.161576
      dz2     :     1.986319  d :     9.937539
      dxz     :     1.995441
      dyz     :     1.985523
      dx2y2   :     1.994929
      dxy     :     1.975326
      f0      :     0.000163  f :     0.001723
      f+1     :     0.000117
      f-1     :     0.000425
      f+2     :     0.000149
      f-2     :     0.000171
      f+3     :     0.000472
      f-3     :     0.000227
      g0      :     0.000001  g :     0.000016
      g+1     :     0.000001
      g-1     :     0.000002
      g+2     :     0.000002
      g-2     :     0.000002
      g+3     :     0.000001
      g-3     :     0.000001
      g+4     :     0.000002
      g-4     :     0.000004
  2 Ags       :     2.340566  s :     2.340566
      pz      :     2.040234  p :     6.221557
      px      :     2.126119
      py      :     2.055204
      dz2     :     1.986320  d :     9.937544
      dxz     :     1.988002
      dyz     :     1.992961
      dx2y2   :     1.980235
      dxy     :     1.990026
      f0      :     0.000162  f :     0.001723
      f+1     :     0.000348
      f-1     :     0.000194
      f+2     :     0.000165
      f-2     :     0.000154
      f+3     :     0.000472
      f-3     :     0.000227
      g0      :     0.000001  g :     0.000016
      g+1     :     0.000002
      g-1     :     0.000001
      g+2     :     0.000002
      g-2     :     0.000002
      g+3     :     0.000001
      g-3     :     0.000001
      g+4     :     0.000003
      g-4     :     0.000003
  3 Ags       :     2.340566  s :     2.340566
      pz      :     2.040234  p :     6.221558
      px      :     2.126119
      py      :     2.055204
      dz2     :     1.986320  d :     9.937544
      dxz     :     1.988002
      dyz     :     1.992961
      dx2y2   :     1.980235
      dxy     :     1.990026
      f0      :     0.000162  f :     0.001723
      f+1     :     0.000348
      f-1     :     0.000194
      f+2     :     0.000165
      f-2     :     0.000154
      f+3     :     0.000472
      f-3     :     0.000227
      g0      :     0.000001  g :     0.000016
      g+1     :     0.000002
      g-1     :     0.000001
      g+2     :     0.000002
      g-2     :     0.000002
      g+3     :     0.000001
      g-3     :     0.000001
      g+4     :     0.000003
      g-4     :     0.000003
  4 H s       :     0.784488  s :     0.784488
      pz      :     0.085372  p :     0.121220
      px      :     0.017925
      py      :     0.017923
      dz2     :     0.005298  d :     0.010236
      dxz     :     0.002365
      dyz     :     0.002365
      dx2y2   :     0.000105
      dxy     :     0.000105

SPIN
  0 Ags       :     0.103009  s :     0.103009
      pz      :     0.163174  p :     0.162729
      px      :    -0.000223
      py      :    -0.000223
      dz2     :     0.088288  d :     0.088110
      dxz     :    -0.000169
      dyz     :    -0.000169
      dx2y2   :     0.000080
      dxy     :     0.000080
      f0      :     0.002008  f :     0.002011
      f+1     :     0.000002
      f-1     :     0.000002
      f+2     :    -0.000001
      f-2     :    -0.000001
      f+3     :     0.000000
      f-3     :     0.000001
      g0      :     0.000034  g :     0.000034
      g+1     :     0.000000
      g-1     :     0.000000
      g+2     :    -0.000000
      g-2     :    -0.000000
      g+3     :    -0.000000
      g-3     :     0.000000
      g+4     :    -0.000000
      g-4     :    -0.000000
  1 Ags       :     0.006991  s :     0.006991
      pz      :     0.004107  p :     0.008535
      px      :     0.000049
      py      :     0.004380
      dz2     :     0.002872  d :     0.002262
      dxz     :    -0.000034
      dyz     :    -0.001053
      dx2y2   :     0.000791
      dxy     :    -0.000315
      f0      :     0.000014  f :     0.000007
      f+1     :    -0.000000
      f-1     :    -0.000010
      f+2     :     0.000003
      f-2     :    -0.000000
      f+3     :    -0.000001
      f-3     :     0.000002
      g0      :     0.000000  g :     0.000000
      g+1     :    -0.000000
      g-1     :     0.000000
      g+2     :    -0.000000
      g-2     :    -0.000000
      g+3     :    -0.000000
      g-3     :     0.000000
      g+4     :     0.000000
      g-4     :    -0.000000
  2 Ags       :     0.006989  s :     0.006989
      pz      :     0.004107  p :     0.008535
      px      :     0.003296
      py      :     0.001132
      dz2     :     0.002872  d :     0.002262
      dxz     :    -0.000798
      dyz     :    -0.000289
      dx2y2   :    -0.000038
      dxy     :     0.000515
      f0      :     0.000014  f :     0.000007
      f+1     :    -0.000008
      f-1     :    -0.000003
      f+2     :     0.000000
      f-2     :     0.000002
      f+3     :    -0.000001
      f-3     :     0.000002
      g0      :     0.000000  g :     0.000000
      g+1     :     0.000000
      g-1     :     0.000000
      g+2     :    -0.000000
      g-2     :    -0.000000
      g+3     :    -0.000000
      g-3     :     0.000000
      g+4     :    -0.000000
      g-4     :    -0.000000
  3 Ags       :     0.006989  s :     0.006989
      pz      :     0.004107  p :     0.008535
      px      :     0.003296
      py      :     0.001132
      dz2     :     0.002872  d :     0.002262
      dxz     :    -0.000798
      dyz     :    -0.000289
      dx2y2   :    -0.000038
      dxy     :     0.000515
      f0      :     0.000014  f :     0.000007
      f+1     :    -0.000008
      f-1     :    -0.000003
      f+2     :     0.000000
      f-2     :     0.000002
      f+3     :    -0.000001
      f-3     :     0.000002
      g0      :     0.000000  g :     0.000000
      g+1     :     0.000000
      g-1     :     0.000000
      g+2     :    -0.000000
      g-2     :    -0.000000
      g+3     :    -0.000000
      g-3     :     0.000000
      g+4     :    -0.000000
      g-4     :    -0.000000
  4 H s       :     0.586618  s :     0.586618
      pz      :     0.001787  p :     0.004127
      px      :     0.001171
      py      :     0.001170
      dz2     :    -0.000173  d :    -0.000020
      dxz     :     0.000073
      dyz     :     0.000073
      dx2y2   :     0.000004
      dxy     :     0.000004


                      *****************************
                      * MAYER POPULATION ANALYSIS *
                      *****************************

  NA   - Mulliken gross atomic population
  ZA   - Total nuclear charge
  QA   - Mulliken gross atomic charge
  VA   - Mayer's total valence
  BVA  - Mayer's bonded valence
  FA   - Mayer's free valence

  ATOM       NA         ZA         QA         VA         BVA        FA
  0 Ag    18.6382    19.0000     0.3618     1.6257     1.4685     0.1571
  1 Ag    18.5165    19.0000     0.4835     1.0346     1.0339     0.0007
  2 Ag    18.5166    19.0000     0.4834     1.0347     1.0340     0.0007
  3 Ag    18.5166    19.0000     0.4834     1.0347     1.0340     0.0007
  4 H      0.8120     1.0000     0.1880     0.9741     0.5431     0.4310

  Mayer bond orders larger than 0.100000
B(  0-Ag,  1-Ag) :   0.3125 B(  0-Ag,  2-Ag) :   0.3125 B(  0-Ag,  3-Ag) :   0.3125 
B(  0-Ag,  4-H ) :   0.5310 B(  1-Ag,  2-Ag) :   0.3587 B(  1-Ag,  3-Ag) :   0.3587 
B(  2-Ag,  3-Ag) :   0.3587 

-------
TIMINGS
-------

Total SCF time: 0 days 0 hours 0 min 20 sec 

Total time                  ....      20.444 sec
Sum of individual times     ....      20.114 sec  ( 98.4%)

Fock matrix formation       ....      17.860 sec  ( 87.4%)
  XC integration            ....       0.988 sec  (  5.5% of F)
    Basis function eval.    ....       0.110 sec  ( 11.1% of XC)
    Density eval.           ....       0.150 sec  ( 15.2% of XC)
    XC-Functional eval.     ....       0.052 sec  (  5.3% of XC)
    XC-Potential eval.      ....       0.251 sec  ( 25.4% of XC)
Diagonalization             ....       0.286 sec  (  1.4%)
Density matrix formation    ....       0.029 sec  (  0.1%)
Population analysis         ....       0.018 sec  (  0.1%)
Initial guess               ....       1.390 sec  (  6.8%)
Orbital Transformation      ....       0.000 sec  (  0.0%)
Orbital Orthonormalization  ....       0.000 sec  (  0.0%)
DIIS solution               ....       0.100 sec  (  0.5%)
Grid generation             ....       0.432 sec  (  2.1%)

-------------------------   --------------------
FINAL SINGLE POINT ENERGY      -587.818405319645
-------------------------   --------------------


                            ***************************************
                            *     ORCA property calculations      *
                            ***************************************

                                    ---------------------
                                    Active property flags
                                    ---------------------
   (+) Dipole Moment


------------------------------------------------------------------------------
                       ORCA ELECTRIC PROPERTIES CALCULATION
------------------------------------------------------------------------------

Dipole Moment Calculation                       ... on
Quadrupole Moment Calculation                   ... off
Polarizability Calculation                      ... off
GBWName                                         ... Ag04C2_H_A.gbw
Electron density file                           ... Ag04C2_H_A.scfp
The origin for moment calculation is the CENTER OF MASS  = ( 0.000000, -0.000000 -0.019530)

-------------
DIPOLE MOMENT
-------------
                                X             Y             Z
Electronic contribution:     -0.00000       0.00006      -5.30754
Nuclear contribution   :      0.00000       0.00000       5.41329
                        -----------------------------------------
Total Dipole Moment    :     -0.00000       0.00006       0.10574
                        -----------------------------------------
Magnitude (a.u.)       :      0.10574
Magnitude (Debye)      :      0.26877



--------------------
Rotational spectrum 
--------------------
 
Rotational constants in cm-1:     0.019934     0.019231     0.019231 
Rotational constants in MHz :   597.606998   576.544336   576.544235 

 Dipole components along the rotational axes: 
x,y,z [a.u.] :    -0.105742    -0.000057    -0.000000 
x,y,z [Debye]:    -0.268774    -0.000145    -0.000000 

 

Timings for individual modules:

Sum of individual times         ...       22.296 sec (=   0.372 min)
GTO integral calculation        ...        1.470 sec (=   0.025 min)   6.6 %
SCF iterations                  ...       20.826 sec (=   0.347 min)  93.4 %
                             ****ORCA TERMINATED NORMALLY****
TOTAL RUN TIME: 0 days 0 hours 0 minutes 22 seconds 774 msec
