
                                 *****************
                                 * O   R   C   A *
                                 *****************

           --- An Ab Initio, DFT and Semiempirical electronic structure package ---

                  #######################################################
                  #                        -***-                        #
                  #          Department of theory and spectroscopy      #
                  #               Directorship: Frank Neese             #
                  #        Max Planck Institute fuer Kohlenforschung    #
                  #                Kaiser Wilhelm Platz 1               #
                  #                 D-45470 Muelheim/Ruhr               #
                  #                      Germany                        #
                  #                                                     #
                  #                  All rights reserved                #
                  #                        -***-                        #
                  #######################################################


                         Program Version 4.2.0 -  RELEASE  -


 With contributions from (in alphabetic order):
   Daniel Aravena         : Magnetic Suceptibility
   Michael Atanasov       : Ab Initio Ligand Field Theory (pilot matlab implementation)
   Alexander A. Auer      : GIAO ZORA, VPT2
   Ute Becker             : Parallelization
   Giovanni Bistoni       : ED, misc. LED, open-shell LED, HFLED
   Martin Brehm           : Molecular dynamics
   Dmytro Bykov           : SCF Hessian
   Vijay G. Chilkuri      : MRCI spin determinant printing, contributions to CSF-ICE
   Dipayan Datta          : RHF DLPNO-CCSD density
   Achintya Kumar Dutta   : EOM-CC, STEOM-CC
   Dmitry Ganyushin       : Spin-Orbit,Spin-Spin,Magnetic field MRCI
   Miquel Garcia          : C-PCM Hessian, Gaussian charge scheme
   Yang Guo               : DLPNO-NEVPT2, CIM, IAO-localization
   Andreas Hansen         : Spin unrestricted coupled pair/coupled cluster methods
   Benjamin Helmich-Paris : CASSCF linear response (MC-RPA)
   Lee Huntington         : MR-EOM, pCC
   Robert Izsak           : Overlap fitted RIJCOSX, COSX-SCS-MP3, EOM
   Christian Kollmar      : KDIIS, OOCD, Brueckner-CCSD(T), CCSD density
   Simone Kossmann        : Meta GGA functionals, TD-DFT gradient, OOMP2, MP2 Hessian
   Martin Krupicka        : AUTO-CI
   Lucas Lang             : DCDCAS
   Dagmar Lenk            : GEPOL surface, SMD
   Dimitrios Liakos       : Extrapolation schemes; Compound Job, initial MDCI parallelization
   Dimitrios Manganas     : Further ROCIS development; embedding schemes
   Dimitrios Pantazis     : SARC Basis sets
   Taras Petrenko         : DFT Hessian,TD-DFT gradient, ASA, ECA, R-Raman, ABS, FL, XAS/XES, NRVS
   Peter Pinski           : DLPNO-MP2, DLPNO-MP2 Gradient
   Christoph Reimann      : Effective Core Potentials
   Marius Retegan         : Local ZFS, SOC
   Christoph Riplinger    : Optimizer, TS searches, QM/MM, DLPNO-CCSD(T), (RO)-DLPNO pert. Triples
   Tobias Risthaus        : Range-separated hybrids, TD-DFT gradient, RPA, STAB
   Michael Roemelt        : Original ROCIS implementation
   Masaaki Saitow         : Open-shell DLPNO-CCSD energy and density
   Barbara Sandhoefer     : DKH picture change effects
   Avijit Sen             : IP-ROCIS
   Kantharuban Sivalingam : CASSCF convergence, NEVPT2, FIC-MRCI
   Bernardo de Souza      : ESD, SOC TD-DFT
   Georgi Stoychev        : AutoAux, RI-MP2 NMR
   Willem Van den Heuvel  : Paramagnetic NMR
   Boris Wezisla          : Elementary symmetry handling
   Frank Wennmohs         : Technical directorship


 We gratefully acknowledge several colleagues who have allowed us to
 interface, adapt or use parts of their codes:
   Stefan Grimme, W. Hujo, H. Kruse,             : VdW corrections, initial TS optimization,
                  C. Bannwarth                     DFT functionals, gCP, sTDA/sTD-DF
   Ed Valeev, F. Pavosevic, A. Kumar             : LibInt (2-el integral package), F12 methods
   Garnet Chan, S. Sharma, J. Yang, R. Olivares  : DMRG
   Ulf Ekstrom                                   : XCFun DFT Library
   Mihaly Kallay                                 : mrcc  (arbitrary order and MRCC methods)
   Andreas Klamt, Michael Diedenhofen            : otool_cosmo (COSMO solvation model)
   Jiri Pittner, Ondrej Demel                    : Mk-CCSD
   Frank Weinhold                                : gennbo (NPA and NBO analysis)
   Christopher J. Cramer and Donald G. Truhlar   : smd solvation model
   Lars Goerigk                                  : TD-DFT with DH, B97 family of functionals
   V. Asgeirsson, H. Jonsson                     : NEB implementation
   FAccTs GmbH                                   : IRC, NEB, NEB-TS, Multilevel, MM, QM/MM, CI optimization
   S Lehtola, MJT Oliveira, MAL Marques          : LibXC Library


 Your calculation uses the libint2 library for the computation of 2-el integrals
 For citations please refer to: http://libint.valeyev.net

 Your ORCA version has been built with support for libXC version: 4.2.3
 For citations please refer to: https://tddft.org/programs/libxc/

 This ORCA versions uses:
   CBLAS   interface :  Fast vector & matrix operations
   LAPACKE interface :  Fast linear algebra routines
   SCALAPACK package :  Parallel linear algebra routines


Your calculation utilizes the DFT-NL dispersion correction.
Cite in your paper:
Vydrov, O. A.; Van Voorhis, T. J. Chem. Phys. 2010, 133, 244103
Hujo, W.; Grimme, S. J. Chem. Theory Comput. 2011, 7, 3866 
   

----- Orbital basis set information -----
Your calculation utilizes the basis: def2-TZVPPD
   F. Weigend and R. Ahlrichs, Phys. Chem. Chem. Phys. 7, 3297 (2005).
   D. Rappoport and F. Furche, J. Chem. Phys. 133 134105 (2010).

----- AuxJK basis set information -----
Your calculation utilizes the auxiliary basis: def2/JK
   H-Ba, Hf-Rn: F. Weigend, J. Comput. Chem. 29, 167 (2008).

cite the ECPs for Ag [Def2-ECP] as follows:
Ce-Yb(ecp-28): M. Dolg, H. Stoll, H.Preuss, J. Chem. Phys., 1989, 90, 1730-1734.
Y-Cd(ecp-28), Hf-Hg(ecp-46): D. Andrae,U. Haeussermann, M. Dolg, H. Stoll, H. Preuss, Theor. Chim. Acta, 1990, 77, 123-141.
In-Sb(ecp-28), Tl-Bi(ecp-46): B. Metz, H. Stoll, M. Dolg, J. Chem. Phys., 2000, 113, 2563-2569.
Te-Xe(ecp-28), Po-Rn(ecp-46): K. A. Peterson, D. Figgen, E. Goll, H. Stoll, M. Dolg, J. Chem. Phys., 2003, 119, 11113-11123.
Rb(ecp-28), Cs(ecp-46): T. Leininger, A. Nicklass, W. Kuechle, H. Stoll, M. Dolg, A. Bergner, Chem. Phys. Lett., 1996, 255, 274-280.
Sr(ecp-28), Ba(ecp-46): M. Kaupp, P. V. Schleyer, H. Stoll and H. Preuss, J. Chem. Phys., 1991, 94, 1360-1366.
La(ecp-46): M. Dolg, H. Stoll, A. Savin, H. Preuss, Theor. Chim. Acta, 1989, 75, 173-194.
Lu(ecp-28): X. Cao, M. Dolg, J. Chem. Phys., 2001, 115, 7348-7355.

ECP parameters for Ag [Def2-ECP] have been obtained from:
TURBOMOLE (7.0.2)

================================================================================
                                        WARNINGS
                       Please study these warnings very carefully!
================================================================================


INFO   : the flag for use of LIBINT has been found!

================================================================================
                                       INPUT FILE
================================================================================
NAME = Ag04C2.in
|  1> #
|  2> # Ag04C2 wB97X-V/Def2-TZVPPD
|  3> #
|  4> ! wb97x-v def2-tzvppd def2/jk grid4 nofinalgrid
|  5> 
|  6> *xyz 2 1
|  7> Ag      -0.000000   -0.000016    1.715553 
|  8> Ag       0.000000   -1.617524   -0.571836 
|  9> Ag       1.400774    0.808769   -0.571859 
| 10> Ag      -1.400774    0.808770   -0.571858 
| 11> *
| 12> 
| 13> %maxcore 5000
| 14> 
| 15> %pal
| 16> nprocs = 24
| 17> end
| 18> 
| 19> 
| 20>                          ****END OF INPUT****
================================================================================

                       ****************************
                       * Single Point Calculation *
                       ****************************

---------------------------------
CARTESIAN COORDINATES (ANGSTROEM)
---------------------------------
  Ag    -0.000000   -0.000016    1.715553
  Ag     0.000000   -1.617524   -0.571836
  Ag     1.400774    0.808769   -0.571859
  Ag    -1.400774    0.808770   -0.571858

----------------------------
CARTESIAN COORDINATES (A.U.)
----------------------------
  NO LB      ZA    FRAG     MASS         X           Y           Z
   0 Ag   19.0000*   0   107.870   -0.000000   -0.000030    3.241925
   1 Ag   19.0000*   0   107.870    0.000000   -3.056677   -1.080613
   2 Ag   19.0000*   0   107.870    2.647079    1.528352   -1.080657
   3 Ag   19.0000*   0   107.870   -2.647079    1.528354   -1.080655
* core charge reduced due to ECP

--------------------------------
INTERNAL COORDINATES (ANGSTROEM)
--------------------------------
 Ag     0   0   0     0.000000000000     0.00000000     0.00000000
 Ag     1   0   0     2.801513977724     0.00000000     0.00000000
 Ag     1   2   0     2.801527196556    60.00230934     0.00000000
 Ag     1   2   3     2.801526668763    60.00233602    70.52749234

---------------------------
INTERNAL COORDINATES (A.U.)
---------------------------
 Ag     0   0   0     0.000000000000     0.00000000     0.00000000
 Ag     1   0   0     5.294094178251     0.00000000     0.00000000
 Ag     1   2   0     5.294119158224    60.00230934     0.00000000
 Ag     1   2   3     5.294118160840    60.00233602    70.52749234

---------------------
BASIS SET INFORMATION
---------------------
There are 1 groups of distinct atoms

 Group   1 Type Ag  : 7s7p6d2f1g contracted to 6s4p3d2f1g pattern {211111/4111/411/11/1}

Atom   0Ag   basis set group =>   1
Atom   1Ag   basis set group =>   1
Atom   2Ag   basis set group =>   1
Atom   3Ag   basis set group =>   1
----------------------------------
AUXILIARY/JK BASIS SET INFORMATION
----------------------------------
There are 1 groups of distinct atoms

 Group   1 Type Ag  : 13s12p10d9f6g3h2i contracted to 11s10p9d8f6g3h2i pattern {31111111111/3111111111/211111111/21111111/111111/111/11}

Atom   0Ag   basis set group =>   1
Atom   1Ag   basis set group =>   1
Atom   2Ag   basis set group =>   1
Atom   3Ag   basis set group =>   1
-------------------------
ECP PARAMETER INFORMATION
-------------------------

 Group 1, Type Ag ECP Def2-ECP (replacing 28 core electrons, lmax=3)

Atom   0Ag   ECP group =>   1
Atom   1Ag   ECP group =>   1
Atom   2Ag   ECP group =>   1
Atom   3Ag   ECP group =>   1



           ************************************************************
           *        Program running with 24 parallel MPI-processes    *
           *              working on a common directory               *
           ************************************************************
------------------------------------------------------------------------------
                           ORCA GTO INTEGRAL CALCULATION
------------------------------------------------------------------------------

                         BASIS SET STATISTICS AND STARTUP INFO

 # of primitive gaussian shells          ...   92
 # of primitive gaussian functions       ...  324
 # of contracted shells                  ...   64
 # of contracted basis functions         ...  224
 Highest angular momentum                ...    4
 Maximum contraction depth               ...    4
 Integral package used                   ... LIBINT
 Integral threshhold            Thresh   ...  1.000e-10
 Primitive cut-off              TCut     ...  1.000e-11


------------------------------ INTEGRAL EVALUATION ----------------------------


 * One electron integrals 

   ECP integrals                         ... done
 Pre-screening matrix                    ... done
 Shell pair data                         ... done (   0.000 sec)



           ************************************************************
           *        Program running with 24 parallel MPI-processes    *
           *              working on a common directory               *
           ************************************************************
-------------------------------------------------------------------------------
                                 ORCA SCF
-------------------------------------------------------------------------------

------------
SCF SETTINGS
------------
Hamiltonian:
 Density Functional     Method          .... DFT(GTOs)
 Exchange Functional    Exchange        .... WB97X-V
 Correlation Functional Correlation     .... WB97X-V
 Gradients option       PostSCFGGA      .... off
 Hybrid DFT is turned on
   Fraction HF Exchange ScalHFX         ....  0.167000
   Scaling of DF-GGA-X  ScalDFX         ....  0.000000
   Scaling of DF-GGA-C  ScalDFC         ....  1.000000
   Scaling of DF-LDA-C  ScalLDAC        ....  1.000000
   Perturbative correction              ....  0.000000
   Density functional embedding theory  .... OFF
 Long-range corrected/Screened/Range-Separated Hybrid DFT is turned on
   Amount of maximum screened exact exchange              ....  0.833000
   Range separation parameter mu (erf(mu*r12)/r12)        ....  0.300000
   NL short-range parameter             ....  6.000000
   NL long-range parameter              ....  0.010000


General Settings:
 Integral files         IntName         .... Ag04C2
 Hartree-Fock type      HFTyp           .... RHF
 Total Charge           Charge          ....    2
 Multiplicity           Mult            ....    1
 Number of Electrons    NEL             ....   74
 Basis Dimension        Dim             ....  224
 Nuclear Repulsion      ENuc            ....    409.1285852923 Eh

Convergence Acceleration:
 DIIS                   CNVDIIS         .... on
   Start iteration      DIISMaxIt       ....    12
   Startup error        DIISStart       ....  0.200000
   # of expansion vecs  DIISMaxEq       ....     5
   Bias factor          DIISBfac        ....   1.050
   Max. coefficient     DIISMaxC        ....  10.000
 Newton-Raphson         CNVNR           .... off
 SOSCF                  CNVSOSCF        .... off
 Level Shifting         CNVShift        .... on
   Level shift para.    LevelShift      ....    0.2500
   Turn off err/grad.   ShiftErr        ....    0.0010
 Zerner damping         CNVZerner       .... off
 Static damping         CNVDamp         .... on
   Fraction old density DampFac         ....    0.7000
   Max. Damping (<1)    DampMax         ....    0.9800
   Min. Damping (>=0)   DampMin         ....    0.0000
   Turn off err/grad.   DampErr         ....    0.1000
 Fernandez-Rico         CNVRico         .... off

SCF Procedure:
 Maximum # iterations   MaxIter         ....   125
 SCF integral mode      SCFMode         .... Direct
   Integral package                     .... LIBINT
 Reset frequency        DirectResetFreq ....    20
 Integral Threshold     Thresh          ....  1.000e-10 Eh
 Primitive CutOff       TCut            ....  1.000e-11 Eh

Convergence Tolerance:
 Convergence Check Mode ConvCheckMode   .... Total+1el-Energy
 Convergence forced     ConvForced      .... 0
 Energy Change          TolE            ....  1.000e-06 Eh
 1-El. energy change                    ....  1.000e-03 Eh
 DIIS Error             TolErr          ....  1.000e-06


Diagonalization of the overlap matrix:
Smallest eigenvalue                        ... 1.939e-03
Time for diagonalization                   ...    0.008 sec
Threshold for overlap eigenvalues          ... 1.000e-08
Number of eigenvalues below threshold      ... 0
Time for construction of square roots      ...    0.007 sec
Total time needed                          ...    0.015 sec

-------------------
DFT GRID GENERATION
-------------------

General Integration Accuracy     IntAcc      ...  4.670
Radial Grid Type                 RadialGrid  ... Gauss-Chebyshev
Angular Grid (max. acc.)         AngularGrid ... Lebedev-302
Angular grid pruning method      GridPruning ... 3 (G Style)
Weight generation scheme         WeightScheme... Becke
Basis function cutoff            BFCut       ...    1.0000e-10
Integration weight cutoff        WCut        ...    1.0000e-14
Grids for H and He will be reduced by one unit

# of grid points (after initial pruning)     ...  42632 (   0.0 sec)
# of grid points (after weights+screening)   ...  42209 (   0.0 sec)
nearest neighbour list constructed           ...    0.0 sec
Grid point re-assignment to atoms done       ...    0.0 sec
Grid point division into batches done        ...    0.4 sec
Reduced shell lists constructed in    0.4 sec

Total number of grid points                  ...    42209
Total number of batches                      ...      661
Average number of points per batch           ...       63
Average number of grid points per atom       ...    10552
Average number of shells per batch           ...     9.14 (14.28%)
Average number of basis functions per batch  ...    21.62 ( 9.65%)
Average number of large shells per batch     ...     5.93 (64.91%)
Average number of large basis fcns per batch ...    12.90 (59.65%)
Maximum spatial batch extension              ...  27.29, 26.58, 26.39 au
Average spatial batch extension              ...   0.56,  0.58,  0.53 au

Time for grid setup =    0.393 sec

------------------------------
INITIAL GUESS: MODEL POTENTIAL
------------------------------
Loading Hartree-Fock densities                     ... done
  calling /sw/apps/orca/orca_4_2_0_linux_x86-64_openmpi314/orca Ag04C2_atom47.inp > Ag04C2_atom47.out in order to generate an atomic fitting density for atom 0 (Ag with ECP) on-the-fly... 
    atom 0 (Ag), assumed electronic state with S=2: 1s2 2s2 2p6 3s2 3p6 4s2 3d10 4p6 5s2 4d9           ... done
Calculating cut-offs                               ... done
Setting up the integral package                    ... done
Initializing the effective Hamiltonian             ... done
Starting the Coulomb interaction                   ... done (   0.0 sec)
Reading the grid                                   ... done
Mapping shells                                     ... done
Starting the XC term evaluation                    ... done (   0.0 sec)
  promolecular density results
     # of electrons  =    188.001841056
     EX              =   -450.165317650
     EC              =    -13.043562138
     EX+EC           =   -463.208879787
Transforming the Hamiltonian                       ... done (   0.0 sec)
Diagonalizing the Hamiltonian                      ... done (   0.0 sec)
Back transforming the eigenvectors                 ... done (   0.0 sec)
Now organizing SCF variables                       ... done
                      ------------------
                      INITIAL GUESS DONE (   1.8 sec)
                      ------------------
--------------
SCF ITERATIONS
--------------
ITER       Energy         Delta-E        Max-DP      RMS-DP      [F,P]     Damp
               ***  Starting incremental Fock matrix formation  ***
  0   -587.2692394745   0.000000000000 0.06614639  0.00169398  0.3666934 0.7000
  1   -587.3873564927  -0.118117018167 0.05290929  0.00139234  0.2750387 0.7000
  2   -587.4490409336  -0.061684440922 0.04017976  0.00102554  0.2031790 0.7000
                               ***Turning on DIIS***
  3   -587.4880628601  -0.039021926473 0.03039916  0.00075628  0.1468886 0.7000
  4   -587.5155460691  -0.027483208989 0.02496390  0.00061039  0.1045190 0.7000
  5   -587.5352401338  -0.019694064678 0.06724784  0.00157233  0.0722880 0.0000
  6   -587.5841482957  -0.048908161948 0.00585692  0.00013934  0.0037150 0.0000
  7   -587.5844397345  -0.000291438774 0.00234784  0.00007942  0.0022016 0.0000
  8   -587.5845320486  -0.000092314096 0.00121133  0.00004196  0.0013510 0.0000
  9   -587.5845696191  -0.000037570556 0.00067602  0.00002128  0.0004671 0.0000
 10   -587.5845749906  -0.000005371469 0.00017751  0.00000383  0.0000356 0.0000
                 **** Energy Check signals convergence ****

               *****************************************************
               *                     SUCCESS                       *
               *           SCF CONVERGED AFTER  11 CYCLES          *
               *****************************************************


Setting up the DFT-NL grid :

General Integration Accuracy     IntAcc      ...  4.340
Radial Grid Type                 RadialGrid  ... Gauss-Chebyshev
Angular Grid (max. acc.)         AngularGrid ... Lebedev-110
Angular grid pruning method      GridPruning ... 3 (G Style)
Weight generation scheme         WeightScheme... Becke
Basis function cutoff            BFCut       ...    1.0000e-10
Integration weight cutoff        WCut        ...    1.0000e-14
Grids for H and He will be reduced by one unit

# of grid points (after initial pruning)     ...  13032 (   0.0 sec)
# of grid points (after weights+screening)   ...  12930 (   0.0 sec)
nearest neighbour list constructed           ...    0.0 sec
Grid point re-assignment to atoms done       ...    0.0 sec
Grid point division into batches done        ...    0.0 sec
Reduced shell lists constructed in    0.0 sec

Total number of grid points                  ...    12930
Total number of batches                      ...      204
Average number of points per batch           ...       63
Average number of grid points per atom       ...     3232
Average number of shells per batch           ...    14.30 (22.34%)
Average number of basis functions per batch  ...    37.10 (16.56%)
Average number of large shells per batch     ...     9.70 (67.83%)
Average number of large basis fcns per batch ...    22.90 (61.73%)
Maximum spatial batch extension              ...  39.26, 27.83, 20.50 au
Average spatial batch extension              ...   0.92,  0.77,  0.63 au

Final grid set up in    0.0 sec

-------------------------------------------------------------------------------
                         DFT-NL dispersion correction                          
-------------------------------------------------------------------------------

SC Energy -587.584575063 
NL    Energy 0.282533871 
SC+NL Energy -587.302041192 
NL done in    0.0 sec
-------------------------------------------------------------------------------

----------------
TOTAL SCF ENERGY
----------------

Total Energy       :         -587.30204119 Eh          -15981.30101 eV

Components:
Nuclear Repulsion  :          409.12858529 Eh           11132.95479 eV
Electronic Energy  :         -996.43062648 Eh          -27114.25581 eV
One Electron Energy:        -1834.73283843 Eh          -49925.61870 eV
Two Electron Energy:          838.30221194 Eh           22811.36289 eV

Virial components:
Potential Energy   :         -812.80868362 Eh          -22117.64872 eV
Kinetic Energy     :          225.50664243 Eh            6136.34771 eV
Virial Ratio       :            3.60436693


DFT components:
N(Alpha)           :       36.999996544550 electrons
N(Beta)            :       36.999996544550 electrons
N(Total)           :       73.999993089100 electrons
E(X)               :      -34.336877821460 Eh       
E(C)               :       -3.545467478011 Eh       
NL Energy, E(C,NL) :        0.282533871152 Eh       
E(XC)              :      -37.599811428319 Eh       
DFET-embed. en.    :        0.000000000000 Eh       

---------------
SCF CONVERGENCE
---------------

  Last Energy change         ...   -7.2428e-08  Tolerance :   1.0000e-06
  Last MAX-Density change    ...    7.2784e-05  Tolerance :   1.0000e-05
  Last RMS-Density change    ...    1.1629e-06  Tolerance :   1.0000e-06
  Last DIIS Error            ...    1.4574e-05  Tolerance :   1.0000e-06

             **** THE GBW FILE WAS UPDATED (Ag04C2.gbw) ****
             **** DENSITY FILE WAS UPDATED (Ag04C2.scfp) ****
             **** ENERGY FILE WAS UPDATED (Ag04C2.en.tmp) ****
             **** THE GBW FILE WAS UPDATED (Ag04C2.gbw) ****
             **** DENSITY FILE WAS UPDATED (Ag04C2.scfp) ****
----------------
ORBITAL ENERGIES
----------------

  NO   OCC          E(Eh)            E(eV) 
   0   2.0000      -4.210117      -114.5631 
   1   2.0000      -4.209828      -114.5552 
   2   2.0000      -4.209826      -114.5552 
   3   2.0000      -4.209824      -114.5551 
   4   2.0000      -2.811888       -76.5154 
   5   2.0000      -2.809830       -76.4594 
   6   2.0000      -2.809829       -76.4593 
   7   2.0000      -2.809828       -76.4593 
   8   2.0000      -2.809075       -76.4388 
   9   2.0000      -2.809073       -76.4388 
  10   2.0000      -2.807710       -76.4017 
  11   2.0000      -2.807710       -76.4017 
  12   2.0000      -2.807708       -76.4016 
  13   2.0000      -2.807471       -76.3952 
  14   2.0000      -2.807470       -76.3951 
  15   2.0000      -2.807469       -76.3951 
  16   2.0000      -0.861237       -23.4355 
  17   2.0000      -0.838031       -22.8040 
  18   2.0000      -0.838024       -22.8038 
  19   2.0000      -0.838016       -22.8036 
  20   2.0000      -0.830658       -22.6033 
  21   2.0000      -0.830651       -22.6032 
  22   2.0000      -0.816282       -22.2122 
  23   2.0000      -0.816279       -22.2121 
  24   2.0000      -0.816269       -22.2118 
  25   2.0000      -0.795483       -21.6462 
  26   2.0000      -0.795472       -21.6459 
  27   2.0000      -0.795469       -21.6458 
  28   2.0000      -0.793132       -21.5822 
  29   2.0000      -0.793123       -21.5820 
  30   2.0000      -0.791666       -21.5423 
  31   2.0000      -0.791654       -21.5420 
  32   2.0000      -0.791641       -21.5416 
  33   2.0000      -0.772233       -21.0135 
  34   2.0000      -0.772233       -21.0135 
  35   2.0000      -0.772223       -21.0133 
  36   2.0000      -0.700203       -19.0535 
  37   0.0000      -0.358998        -9.7688 
  38   0.0000      -0.358993        -9.7687 
  39   0.0000      -0.358992        -9.7687 
  40   0.0000      -0.252095        -6.8599 
  41   0.0000      -0.236346        -6.4313 
  42   0.0000      -0.236345        -6.4313 
  43   0.0000      -0.236343        -6.4312 
  44   0.0000      -0.226226        -6.1559 
  45   0.0000      -0.226222        -6.1558 
  46   0.0000      -0.131125        -3.5681 
  47   0.0000      -0.131123        -3.5680 
  48   0.0000      -0.131122        -3.5680 
  49   0.0000      -0.124423        -3.3857 
  50   0.0000      -0.124421        -3.3857 
  51   0.0000      -0.124420        -3.3856 
  52   0.0000      -0.081279        -2.2117 
  53   0.0000      -0.065686        -1.7874 
  54   0.0000      -0.038605        -1.0505 
  55   0.0000      -0.038604        -1.0505 
  56   0.0000      -0.038602        -1.0504 
  57   0.0000      -0.032419        -0.8822 
  58   0.0000      -0.032416        -0.8821 
  59   0.0000      -0.022149        -0.6027 
  60   0.0000      -0.022148        -0.6027 
  61   0.0000      -0.022141        -0.6025 
  62   0.0000       0.064881         1.7655 
  63   0.0000       0.064886         1.7656 
  64   0.0000       0.064888         1.7657 
  65   0.0000       0.104953         2.8559 
  66   0.0000       0.104956         2.8560 
  67   0.0000       0.104961         2.8561 
  68   0.0000       0.134534         3.6609 
  69   0.0000       0.134545         3.6611 
  70   0.0000       0.134547         3.6612 
  71   0.0000       0.254714         6.9311 
  72   0.0000       0.254720         6.9313 
  73   0.0000       0.267048         7.2668 
  74   0.0000       0.281917         7.6713 
  75   0.0000       0.281919         7.6714 
  76   0.0000       0.281922         7.6715 
  77   0.0000       0.363705         9.8969 
  78   0.0000       0.363709         9.8970 
  79   0.0000       0.363715         9.8972 
  80   0.0000       0.376046        10.2327 
  81   0.0000       0.376047        10.2327 
  82   0.0000       0.429105        11.6765 
  83   0.0000       0.429107        11.6766 
  84   0.0000       0.429126        11.6771 
  85   0.0000       0.478040        13.0081 
  86   0.0000       0.478046        13.0083 
  87   0.0000       0.478048        13.0083 
  88   0.0000       1.253096        34.0985 
  89   0.0000       1.253122        34.0992 
  90   0.0000       1.292816        35.1793 
  91   0.0000       1.292842        35.1800 
  92   0.0000       1.292848        35.1802 
  93   0.0000       1.301031        35.4029 
  94   0.0000       1.303265        35.4636 
  95   0.0000       1.303291        35.4643 
  96   0.0000       1.303298        35.4645 
  97   0.0000       1.318888        35.8888 
  98   0.0000       1.318908        35.8893 
  99   0.0000       1.318918        35.8896 
 100   0.0000       1.321880        35.9702 
 101   0.0000       1.334037        36.3010 
 102   0.0000       1.334046        36.3013 
 103   0.0000       1.334533        36.3145 
 104   0.0000       1.334542        36.3147 
 105   0.0000       1.334563        36.3153 
 106   0.0000       1.345799        36.6210 
 107   0.0000       1.366155        37.1750 
 108   0.0000       1.366155        37.1750 
 109   0.0000       1.366181        37.1757 
 110   0.0000       1.370601        37.2959 
 111   0.0000       1.370604        37.2960 
 112   0.0000       1.370612        37.2962 
 113   0.0000       1.401327        38.1321 
 114   0.0000       1.401328        38.1321 
 115   0.0000       1.401345        38.1325 
 116   0.0000       1.404982        38.2315 
 117   0.0000       1.404985        38.2316 
 118   0.0000       1.404992        38.2318 
 119   0.0000       1.483899        40.3789 
 120   0.0000       1.497973        40.7619 
 121   0.0000       1.497975        40.7620 
 122   0.0000       1.505833        40.9758 
 123   0.0000       1.505833        40.9758 
 124   0.0000       1.505847        40.9762 
 125   0.0000       1.642315        44.6897 
 126   0.0000       1.642318        44.6897 
 127   0.0000       1.642332        44.6901 
 128   0.0000       1.733589        47.1734 
 129   0.0000       1.825919        49.6858 
 130   0.0000       1.825938        49.6863 
 131   0.0000       1.825958        49.6869 
 132   0.0000       1.852200        50.4009 
 133   0.0000       1.852254        50.4024 
 134   0.0000       1.854127        50.4533 
 135   0.0000       1.854163        50.4543 
 136   0.0000       1.854169        50.4545 
 137   0.0000       1.934219        52.6328 
 138   0.0000       1.934257        52.6338 
 139   0.0000       1.934262        52.6340 
 140   0.0000       1.938012        52.7360 
 141   0.0000       1.938042        52.7368 
 142   0.0000       1.938100        52.7384 
 143   0.0000       1.949090        53.0374 
 144   0.0000       1.949097        53.0376 
 145   0.0000       1.949126        53.0384 
 146   0.0000       1.956048        53.2268 
 147   0.0000       1.956108        53.2284 
 148   0.0000       2.366428        64.3938 
 149   0.0000       2.500289        68.0363 
 150   0.0000       2.500315        68.0370 
 151   0.0000       2.500338        68.0377 
 152   0.0000       4.526653       123.1765 
 153   0.0000       4.526698       123.1777 
 154   0.0000       4.549132       123.7882 
 155   0.0000       4.549189       123.7897 
 156   0.0000       4.549221       123.7906 
 157   0.0000       4.555740       123.9680 
 158   0.0000       4.567858       124.2977 
 159   0.0000       4.567893       124.2987 
 160   0.0000       4.567915       124.2993 
 161   0.0000       4.568956       124.3276 
 162   0.0000       4.568970       124.3280 
 163   0.0000       4.568979       124.3282 
 164   0.0000       4.571928       124.4085 
 165   0.0000       4.581388       124.6659 
 166   0.0000       4.608721       125.4097 
 167   0.0000       4.608732       125.4100 
 168   0.0000       4.608769       125.4110 
 169   0.0000       4.620914       125.7415 
 170   0.0000       4.620926       125.7418 
 171   0.0000       4.620994       125.7436 
 172   0.0000       4.631629       126.0330 
 173   0.0000       4.631633       126.0331 
 174   0.0000       4.753959       129.3618 
 175   0.0000       4.754004       129.3630 
 176   0.0000       4.754065       129.3647 
 177   0.0000       4.759233       129.5053 
 178   0.0000       4.759268       129.5063 
 179   0.0000       4.759311       129.5074 
 180   0.0000       5.301920       144.2726 
 181   0.0000       5.301960       144.2737 
 182   0.0000       5.302134       144.2784 
 183   0.0000       5.302150       144.2788 
 184   0.0000       5.302239       144.2813 
 185   0.0000       5.302362       144.2846 
 186   0.0000       5.302384       144.2852 
 187   0.0000       5.302527       144.2891 
 188   0.0000       5.302610       144.2913 
 189   0.0000       5.302830       144.2973 
 190   0.0000       5.302923       144.2999 
 191   0.0000       5.303040       144.3030 
 192   0.0000       5.303049       144.3033 
 193   0.0000       5.303379       144.3123 
 194   0.0000       5.303561       144.3172 
 195   0.0000       5.303608       144.3185 
 196   0.0000       5.303869       144.3256 
 197   0.0000       5.303887       144.3261 
 198   0.0000       5.304025       144.3298 
 199   0.0000       5.304117       144.3324 
 200   0.0000       5.304121       144.3325 
 201   0.0000       5.304224       144.3353 
 202   0.0000       5.304280       144.3368 
 203   0.0000       5.304486       144.3424 
 204   0.0000       5.304655       144.3470 
 205   0.0000       5.304720       144.3488 
 206   0.0000       5.304910       144.3539 
 207   0.0000       5.304971       144.3556 
 208   0.0000       5.305557       144.3715 
 209   0.0000       5.305577       144.3721 
 210   0.0000       5.306311       144.3920 
 211   0.0000       5.306741       144.4038 
 212   0.0000       5.306779       144.4048 
 213   0.0000       5.320508       144.7784 
 214   0.0000       5.320520       144.7787 
 215   0.0000       5.320575       144.7802 
 216   0.0000      33.131577       901.5560 
 217   0.0000      33.535908       912.5585 
 218   0.0000      33.535910       912.5585 
 219   0.0000      33.535931       912.5591 
 220   0.0000     110.538920      3007.9169 
 221   0.0000     110.667905      3011.4268 
 222   0.0000     110.667907      3011.4268 
 223   0.0000     110.667912      3011.4270 

                    ********************************
                    * MULLIKEN POPULATION ANALYSIS *
                    ********************************

-----------------------
MULLIKEN ATOMIC CHARGES
-----------------------
   0 Ag:    0.499920
   1 Ag:    0.500146
   2 Ag:    0.499965
   3 Ag:    0.499970
Sum of atomic charges:    2.0000000

--------------------------------
MULLIKEN REDUCED ORBITAL CHARGES
--------------------------------
  0 Ags       :     2.451302  s :     2.451302
      pz      :     2.107845  p :     6.130400
      px      :     2.011277
      py      :     2.011278
      dz2     :     1.990790  d :     9.917149
      dxz     :     1.969015
      dyz     :     1.969028
      dx2y2   :     1.994158
      dxy     :     1.994157
      f0      :     0.000185  f :     0.001216
      f+1     :     0.000277
      f-1     :     0.000277
      f+2     :     0.000200
      f-2     :     0.000200
      f+3     :     0.000033
      f-3     :     0.000044
      g0      :     0.000001  g :     0.000013
      g+1     :     0.000002
      g-1     :     0.000002
      g+2     :     0.000002
      g-2     :     0.000002
      g+3     :     0.000001
      g-3     :     0.000001
      g+4     :     0.000000
      g-4     :     0.000000
  1 Ags       :     2.451154  s :     2.451154
      pz      :     2.021995  p :     6.130332
      px      :     2.011275
      py      :     2.097062
      dz2     :     1.979652  d :     9.917140
      dxz     :     1.996380
      dyz     :     1.981847
      dx2y2   :     1.992459
      dxy     :     1.966802
      f0      :     0.000130  f :     0.001216
      f+1     :     0.000085
      f-1     :     0.000285
      f+2     :     0.000117
      f-2     :     0.000137
      f+3     :     0.000288
      f-3     :     0.000173
      g0      :     0.000001  g :     0.000013
      g+1     :     0.000000
      g-1     :     0.000002
      g+2     :     0.000002
      g-2     :     0.000002
      g+3     :     0.000001
      g-3     :     0.000001
      g+4     :     0.000002
      g-4     :     0.000002
  2 Ags       :     2.451268  s :     2.451268
      pz      :     2.022004  p :     6.130382
      px      :     2.075639
      py      :     2.032739
      dz2     :     1.979654  d :     9.917156
      dxz     :     1.985484
      dyz     :     1.992746
      dx2y2   :     1.973222
      dxy     :     1.986049
      f0      :     0.000130  f :     0.001216
      f+1     :     0.000235
      f-1     :     0.000135
      f+2     :     0.000132
      f-2     :     0.000122
      f+3     :     0.000288
      f-3     :     0.000174
      g0      :     0.000001  g :     0.000013
      g+1     :     0.000002
      g-1     :     0.000001
      g+2     :     0.000002
      g-2     :     0.000002
      g+3     :     0.000001
      g-3     :     0.000001
      g+4     :     0.000002
      g-4     :     0.000002
  3 Ags       :     2.451265  s :     2.451265
      pz      :     2.022004  p :     6.130381
      px      :     2.075638
      py      :     2.032739
      dz2     :     1.979654  d :     9.917156
      dxz     :     1.985484
      dyz     :     1.992746
      dx2y2   :     1.973222
      dxy     :     1.986049
      f0      :     0.000130  f :     0.001216
      f+1     :     0.000235
      f-1     :     0.000135
      f+2     :     0.000132
      f-2     :     0.000122
      f+3     :     0.000288
      f-3     :     0.000174
      g0      :     0.000001  g :     0.000013
      g+1     :     0.000002
      g-1     :     0.000001
      g+2     :     0.000002
      g-2     :     0.000002
      g+3     :     0.000001
      g-3     :     0.000001
      g+4     :     0.000002
      g-4     :     0.000002


                     *******************************
                     * LOEWDIN POPULATION ANALYSIS *
                     *******************************

----------------------
LOEWDIN ATOMIC CHARGES
----------------------
   0 Ag:    0.499978
   1 Ag:    0.500035
   2 Ag:    0.499993
   3 Ag:    0.499993

-------------------------------
LOEWDIN REDUCED ORBITAL CHARGES
-------------------------------
  0 Ags       :     2.338956  s :     2.338956
      pz      :     2.179330  p :     6.220256
      px      :     2.020463
      py      :     2.020463
      dz2     :     1.996121  d :     9.938971
      dxz     :     1.976499
      dyz     :     1.976510
      dx2y2   :     1.994921
      dxy     :     1.994920
      f0      :     0.000244  f :     0.001821
      f+1     :     0.000459
      f-1     :     0.000458
      f+2     :     0.000279
      f-2     :     0.000279
      f+3     :     0.000049
      f-3     :     0.000055
      g0      :     0.000002  g :     0.000017
      g+1     :     0.000003
      g-1     :     0.000003
      g+2     :     0.000003
      g-2     :     0.000003
      g+3     :     0.000001
      g-3     :     0.000001
      g+4     :     0.000000
      g-4     :     0.000000
  1 Ags       :     2.338902  s :     2.338902
      pz      :     2.038112  p :     6.220245
      px      :     2.020460
      py      :     2.161673
      dz2     :     1.986004  d :     9.938980
      dxz     :     1.995571
      dyz     :     1.986236
      dx2y2   :     1.995315
      dxy     :     1.975854
      f0      :     0.000169  f :     0.001821
      f+1     :     0.000126
      f-1     :     0.000468
      f+2     :     0.000172
      f-2     :     0.000181
      f+3     :     0.000479
      f-3     :     0.000227
      g0      :     0.000002  g :     0.000017
      g+1     :     0.000001
      g-1     :     0.000003
      g+2     :     0.000002
      g-2     :     0.000002
      g+3     :     0.000002
      g-3     :     0.000001
      g+4     :     0.000002
      g-4     :     0.000004
  2 Ags       :     2.338934  s :     2.338934
      pz      :     2.038115  p :     6.220251
      px      :     2.126371
      py      :     2.055765
      dz2     :     1.986005  d :     9.938983
      dxz     :     1.988569
      dyz     :     1.993237
      dx2y2   :     1.980725
      dxy     :     1.990447
      f0      :     0.000169  f :     0.001821
      f+1     :     0.000382
      f-1     :     0.000211
      f+2     :     0.000179
      f-2     :     0.000174
      f+3     :     0.000479
      f-3     :     0.000227
      g0      :     0.000002  g :     0.000017
      g+1     :     0.000002
      g-1     :     0.000001
      g+2     :     0.000002
      g-2     :     0.000002
      g+3     :     0.000001
      g-3     :     0.000001
      g+4     :     0.000003
      g-4     :     0.000003
  3 Ags       :     2.338934  s :     2.338934
      pz      :     2.038115  p :     6.220251
      px      :     2.126371
      py      :     2.055765
      dz2     :     1.986005  d :     9.938983
      dxz     :     1.988569
      dyz     :     1.993237
      dx2y2   :     1.980725
      dxy     :     1.990447
      f0      :     0.000169  f :     0.001821
      f+1     :     0.000382
      f-1     :     0.000211
      f+2     :     0.000179
      f-2     :     0.000174
      f+3     :     0.000479
      f-3     :     0.000227
      g0      :     0.000002  g :     0.000017
      g+1     :     0.000002
      g-1     :     0.000001
      g+2     :     0.000002
      g-2     :     0.000002
      g+3     :     0.000001
      g-3     :     0.000001
      g+4     :     0.000003
      g-4     :     0.000003


                      *****************************
                      * MAYER POPULATION ANALYSIS *
                      *****************************

  NA   - Mulliken gross atomic population
  ZA   - Total nuclear charge
  QA   - Mulliken gross atomic charge
  VA   - Mayer's total valence
  BVA  - Mayer's bonded valence
  FA   - Mayer's free valence

  ATOM       NA         ZA         QA         VA         BVA        FA
  0 Ag    18.5001    19.0000     0.4999     1.0163     1.0163     0.0000
  1 Ag    18.4999    19.0000     0.5001     1.0161     1.0161    -0.0000
  2 Ag    18.5000    19.0000     0.5000     1.0162     1.0162    -0.0000
  3 Ag    18.5000    19.0000     0.5000     1.0162     1.0162    -0.0000

  Mayer bond orders larger than 0.100000
B(  0-Ag,  1-Ag) :   0.3387 B(  0-Ag,  2-Ag) :   0.3388 B(  0-Ag,  3-Ag) :   0.3388 
B(  1-Ag,  2-Ag) :   0.3387 B(  1-Ag,  3-Ag) :   0.3387 B(  2-Ag,  3-Ag) :   0.3387 


-------
TIMINGS
-------

Total SCF time: 0 days 0 hours 0 min 13 sec 

Total time                  ....      13.795 sec
Sum of individual times     ....      13.543 sec  ( 98.2%)

Fock matrix formation       ....      11.602 sec  ( 84.1%)
  XC integration            ....       0.471 sec  (  4.1% of F)
    Basis function eval.    ....       0.072 sec  ( 15.2% of XC)
    Density eval.           ....       0.058 sec  ( 12.2% of XC)
    XC-Functional eval.     ....       0.030 sec  (  6.5% of XC)
    XC-Potential eval.      ....       0.102 sec  ( 21.6% of XC)
Diagonalization             ....       0.082 sec  (  0.6%)
Density matrix formation    ....       0.012 sec  (  0.1%)
Population analysis         ....       0.007 sec  (  0.1%)
Initial guess               ....       1.362 sec  (  9.9%)
Orbital Transformation      ....       0.000 sec  (  0.0%)
Orbital Orthonormalization  ....       0.000 sec  (  0.0%)
DIIS solution               ....       0.044 sec  (  0.3%)
Grid generation             ....       0.433 sec  (  3.1%)

-------------------------   --------------------
FINAL SINGLE POINT ENERGY      -587.302041191875
-------------------------   --------------------


                            ***************************************
                            *     ORCA property calculations      *
                            ***************************************

                                    ---------------------
                                    Active property flags
                                    ---------------------
   (+) Dipole Moment


------------------------------------------------------------------------------
                       ORCA ELECTRIC PROPERTIES CALCULATION
------------------------------------------------------------------------------

Dipole Moment Calculation                       ... on
Quadrupole Moment Calculation                   ... off
Polarizability Calculation                      ... off
GBWName                                         ... Ag04C2.gbw
Electron density file                           ... Ag04C2.scfp
The origin for moment calculation is the CENTER OF MASS  = ( 0.000000, -0.000000  0.000000)

-------------
DIPOLE MOMENT
-------------
                                X             Y             Z
Electronic contribution:     -0.00000      -0.00008      -0.00007
Nuclear contribution   :      0.00000      -0.00000       0.00000
                        -----------------------------------------
Total Dipole Moment    :     -0.00000      -0.00008      -0.00007
                        -----------------------------------------
Magnitude (a.u.)       :      0.00011
Magnitude (Debye)      :      0.00027



--------------------
Rotational spectrum 
--------------------
 
Rotational constants in cm-1:     0.019912     0.019911     0.019911 
Rotational constants in MHz :   596.940436   596.919431   596.905399 

 Dipole components along the rotational axes: 
x,y,z [a.u.] :    -0.000071     0.000000    -0.000078 
x,y,z [Debye]:    -0.000180     0.000001    -0.000199 

 

Timings for individual modules:

Sum of individual times         ...       15.549 sec (=   0.259 min)
GTO integral calculation        ...        1.359 sec (=   0.023 min)   8.7 %
SCF iterations                  ...       14.190 sec (=   0.236 min)  91.3 %
                             ****ORCA TERMINATED NORMALLY****
TOTAL RUN TIME: 0 days 0 hours 0 minutes 16 seconds 38 msec
