
                                 *****************
                                 * O   R   C   A *
                                 *****************

           --- An Ab Initio, DFT and Semiempirical electronic structure package ---

                  #######################################################
                  #                        -***-                        #
                  #          Department of theory and spectroscopy      #
                  #               Directorship: Frank Neese             #
                  #        Max Planck Institute fuer Kohlenforschung    #
                  #                Kaiser Wilhelm Platz 1               #
                  #                 D-45470 Muelheim/Ruhr               #
                  #                      Germany                        #
                  #                                                     #
                  #                  All rights reserved                #
                  #                        -***-                        #
                  #######################################################


                         Program Version 4.2.0 -  RELEASE  -


 With contributions from (in alphabetic order):
   Daniel Aravena         : Magnetic Suceptibility
   Michael Atanasov       : Ab Initio Ligand Field Theory (pilot matlab implementation)
   Alexander A. Auer      : GIAO ZORA, VPT2
   Ute Becker             : Parallelization
   Giovanni Bistoni       : ED, misc. LED, open-shell LED, HFLED
   Martin Brehm           : Molecular dynamics
   Dmytro Bykov           : SCF Hessian
   Vijay G. Chilkuri      : MRCI spin determinant printing, contributions to CSF-ICE
   Dipayan Datta          : RHF DLPNO-CCSD density
   Achintya Kumar Dutta   : EOM-CC, STEOM-CC
   Dmitry Ganyushin       : Spin-Orbit,Spin-Spin,Magnetic field MRCI
   Miquel Garcia          : C-PCM Hessian, Gaussian charge scheme
   Yang Guo               : DLPNO-NEVPT2, CIM, IAO-localization
   Andreas Hansen         : Spin unrestricted coupled pair/coupled cluster methods
   Benjamin Helmich-Paris : CASSCF linear response (MC-RPA)
   Lee Huntington         : MR-EOM, pCC
   Robert Izsak           : Overlap fitted RIJCOSX, COSX-SCS-MP3, EOM
   Christian Kollmar      : KDIIS, OOCD, Brueckner-CCSD(T), CCSD density
   Simone Kossmann        : Meta GGA functionals, TD-DFT gradient, OOMP2, MP2 Hessian
   Martin Krupicka        : AUTO-CI
   Lucas Lang             : DCDCAS
   Dagmar Lenk            : GEPOL surface, SMD
   Dimitrios Liakos       : Extrapolation schemes; Compound Job, initial MDCI parallelization
   Dimitrios Manganas     : Further ROCIS development; embedding schemes
   Dimitrios Pantazis     : SARC Basis sets
   Taras Petrenko         : DFT Hessian,TD-DFT gradient, ASA, ECA, R-Raman, ABS, FL, XAS/XES, NRVS
   Peter Pinski           : DLPNO-MP2, DLPNO-MP2 Gradient
   Christoph Reimann      : Effective Core Potentials
   Marius Retegan         : Local ZFS, SOC
   Christoph Riplinger    : Optimizer, TS searches, QM/MM, DLPNO-CCSD(T), (RO)-DLPNO pert. Triples
   Tobias Risthaus        : Range-separated hybrids, TD-DFT gradient, RPA, STAB
   Michael Roemelt        : Original ROCIS implementation
   Masaaki Saitow         : Open-shell DLPNO-CCSD energy and density
   Barbara Sandhoefer     : DKH picture change effects
   Avijit Sen             : IP-ROCIS
   Kantharuban Sivalingam : CASSCF convergence, NEVPT2, FIC-MRCI
   Bernardo de Souza      : ESD, SOC TD-DFT
   Georgi Stoychev        : AutoAux, RI-MP2 NMR
   Willem Van den Heuvel  : Paramagnetic NMR
   Boris Wezisla          : Elementary symmetry handling
   Frank Wennmohs         : Technical directorship


 We gratefully acknowledge several colleagues who have allowed us to
 interface, adapt or use parts of their codes:
   Stefan Grimme, W. Hujo, H. Kruse,             : VdW corrections, initial TS optimization,
                  C. Bannwarth                     DFT functionals, gCP, sTDA/sTD-DF
   Ed Valeev, F. Pavosevic, A. Kumar             : LibInt (2-el integral package), F12 methods
   Garnet Chan, S. Sharma, J. Yang, R. Olivares  : DMRG
   Ulf Ekstrom                                   : XCFun DFT Library
   Mihaly Kallay                                 : mrcc  (arbitrary order and MRCC methods)
   Andreas Klamt, Michael Diedenhofen            : otool_cosmo (COSMO solvation model)
   Jiri Pittner, Ondrej Demel                    : Mk-CCSD
   Frank Weinhold                                : gennbo (NPA and NBO analysis)
   Christopher J. Cramer and Donald G. Truhlar   : smd solvation model
   Lars Goerigk                                  : TD-DFT with DH, B97 family of functionals
   V. Asgeirsson, H. Jonsson                     : NEB implementation
   FAccTs GmbH                                   : IRC, NEB, NEB-TS, Multilevel, MM, QM/MM, CI optimization
   S Lehtola, MJT Oliveira, MAL Marques          : LibXC Library


 Your calculation uses the libint2 library for the computation of 2-el integrals
 For citations please refer to: http://libint.valeyev.net

 Your ORCA version has been built with support for libXC version: 4.2.3
 For citations please refer to: https://tddft.org/programs/libxc/

 This ORCA versions uses:
   CBLAS   interface :  Fast vector & matrix operations
   LAPACKE interface :  Fast linear algebra routines
   SCALAPACK package :  Parallel linear algebra routines


Your calculation utilizes the DFT-NL dispersion correction.
Cite in your paper:
Vydrov, O. A.; Van Voorhis, T. J. Chem. Phys. 2010, 133, 244103
Hujo, W.; Grimme, S. J. Chem. Theory Comput. 2011, 7, 3866 
   

----- Orbital basis set information -----
Your calculation utilizes the basis: def2-TZVPPD
   F. Weigend and R. Ahlrichs, Phys. Chem. Chem. Phys. 7, 3297 (2005).
   D. Rappoport and F. Furche, J. Chem. Phys. 133 134105 (2010).

----- AuxJK basis set information -----
Your calculation utilizes the auxiliary basis: def2/JK
   H-Ba, Hf-Rn: F. Weigend, J. Comput. Chem. 29, 167 (2008).

cite the ECPs for Ag [Def2-ECP] as follows:
Ce-Yb(ecp-28): M. Dolg, H. Stoll, H.Preuss, J. Chem. Phys., 1989, 90, 1730-1734.
Y-Cd(ecp-28), Hf-Hg(ecp-46): D. Andrae,U. Haeussermann, M. Dolg, H. Stoll, H. Preuss, Theor. Chim. Acta, 1990, 77, 123-141.
In-Sb(ecp-28), Tl-Bi(ecp-46): B. Metz, H. Stoll, M. Dolg, J. Chem. Phys., 2000, 113, 2563-2569.
Te-Xe(ecp-28), Po-Rn(ecp-46): K. A. Peterson, D. Figgen, E. Goll, H. Stoll, M. Dolg, J. Chem. Phys., 2003, 119, 11113-11123.
Rb(ecp-28), Cs(ecp-46): T. Leininger, A. Nicklass, W. Kuechle, H. Stoll, M. Dolg, A. Bergner, Chem. Phys. Lett., 1996, 255, 274-280.
Sr(ecp-28), Ba(ecp-46): M. Kaupp, P. V. Schleyer, H. Stoll and H. Preuss, J. Chem. Phys., 1991, 94, 1360-1366.
La(ecp-46): M. Dolg, H. Stoll, A. Savin, H. Preuss, Theor. Chim. Acta, 1989, 75, 173-194.
Lu(ecp-28): X. Cao, M. Dolg, J. Chem. Phys., 2001, 115, 7348-7355.

ECP parameters for Ag [Def2-ECP] have been obtained from:
TURBOMOLE (7.0.2)

================================================================================
                                        WARNINGS
                       Please study these warnings very carefully!
================================================================================


WARNING: your system is open-shell and RHF/RKS was chosen
  ===> : WILL SWITCH to UHF/UKS


INFO   : the flag for use of LIBINT has been found!

================================================================================
                                       INPUT FILE
================================================================================
NAME = Ag04C2_H_F.in
|  1> #
|  2> # Ag04C2_H_F wB97X-V/Def2-TZVPPD
|  3> #
|  4> ! wb97x-v def2-tzvppd def2/jk grid4 nofinalgrid
|  5> 
|  6> *xyz 2 2
|  7> Ag       0.000000    1.604405   -0.611776 
|  8> Ag       1.389456   -0.802203   -0.611776 
|  9> Ag      -1.389456   -0.802203   -0.611776 
| 10> Ag       0.000000    0.000000    1.871824 
| 11> H        0.000000    0.000000   -1.715373 
| 12> *
| 13> 
| 14> %maxcore 5000
| 15> 
| 16> %pal
| 17> nprocs = 24
| 18> end
| 19> 
| 20> 
| 21>                          ****END OF INPUT****
================================================================================

                       ****************************
                       * Single Point Calculation *
                       ****************************

---------------------------------
CARTESIAN COORDINATES (ANGSTROEM)
---------------------------------
  Ag     0.000000    1.604405   -0.611776
  Ag     1.389456   -0.802203   -0.611776
  Ag    -1.389456   -0.802203   -0.611776
  Ag     0.000000    0.000000    1.871824
  H      0.000000    0.000000   -1.715373

----------------------------
CARTESIAN COORDINATES (A.U.)
----------------------------
  NO LB      ZA    FRAG     MASS         X           Y           Z
   0 Ag   19.0000*   0   107.870    0.000000    3.031886   -1.156089
   1 Ag   19.0000*   0   107.870    2.625691   -1.515944   -1.156089
   2 Ag   19.0000*   0   107.870   -2.625691   -1.515944   -1.156089
   3 Ag   19.0000*   0   107.870    0.000000    0.000000    3.537235
   4 H     1.0000    0     1.008    0.000000    0.000000   -3.241585
* core charge reduced due to ECP

--------------------------------
INTERNAL COORDINATES (ANGSTROEM)
--------------------------------
 Ag     0   0   0     0.000000000000     0.00000000     0.00000000
 Ag     1   0   0     2.778911664951     0.00000000     0.00000000
 Ag     1   2   0     2.778911664951    60.00000798     0.00000000
 Ag     1   2   3     2.956752333900    61.97049292    72.09954764
 H      1   2   3     1.947316549109    44.47770393   306.01333306

---------------------------
INTERNAL COORDINATES (A.U.)
---------------------------
 Ag     0   0   0     0.000000000000     0.00000000     0.00000000
 Ag     1   0   0     5.251381997116     0.00000000     0.00000000
 Ag     1   2   0     5.251381997116    60.00000798     0.00000000
 Ag     1   2   3     5.587452156904    61.97049292    72.09954764
 H      1   2   3     3.679894973869    44.47770393   306.01333306

---------------------
BASIS SET INFORMATION
---------------------
There are 2 groups of distinct atoms

 Group   1 Type Ag  : 7s7p6d2f1g contracted to 6s4p3d2f1g pattern {211111/4111/411/11/1}
 Group   2 Type H   : 5s3p1d contracted to 3s3p1d pattern {311/111/1}

Atom   0Ag   basis set group =>   1
Atom   1Ag   basis set group =>   1
Atom   2Ag   basis set group =>   1
Atom   3Ag   basis set group =>   1
Atom   4H    basis set group =>   2
----------------------------------
AUXILIARY/JK BASIS SET INFORMATION
----------------------------------
There are 2 groups of distinct atoms

 Group   1 Type Ag  : 13s12p10d9f6g3h2i contracted to 11s10p9d8f6g3h2i pattern {31111111111/3111111111/211111111/21111111/111111/111/11}
 Group   2 Type H   : 4s2p2d contracted to 2s2p2d pattern {31/11/11}

Atom   0Ag   basis set group =>   1
Atom   1Ag   basis set group =>   1
Atom   2Ag   basis set group =>   1
Atom   3Ag   basis set group =>   1
Atom   4H    basis set group =>   2
-------------------------
ECP PARAMETER INFORMATION
-------------------------

 Group 1, Type Ag ECP Def2-ECP (replacing 28 core electrons, lmax=3)

Atom   0Ag   ECP group =>   1
Atom   1Ag   ECP group =>   1
Atom   2Ag   ECP group =>   1
Atom   3Ag   ECP group =>   1



           ************************************************************
           *        Program running with 24 parallel MPI-processes    *
           *              working on a common directory               *
           ************************************************************
------------------------------------------------------------------------------
                           ORCA GTO INTEGRAL CALCULATION
------------------------------------------------------------------------------

                         BASIS SET STATISTICS AND STARTUP INFO

 # of primitive gaussian shells          ...  101
 # of primitive gaussian functions       ...  343
 # of contracted shells                  ...   71
 # of contracted basis functions         ...  241
 Highest angular momentum                ...    4
 Maximum contraction depth               ...    4
 Integral package used                   ... LIBINT
 Integral threshhold            Thresh   ...  1.000e-10
 Primitive cut-off              TCut     ...  1.000e-11


------------------------------ INTEGRAL EVALUATION ----------------------------


 * One electron integrals 

   ECP integrals                         ... done
 Pre-screening matrix                    ... done
 Shell pair data                         ... done (   0.001 sec)



           ************************************************************
           *        Program running with 24 parallel MPI-processes    *
           *              working on a common directory               *
           ************************************************************
-------------------------------------------------------------------------------
                                 ORCA SCF
-------------------------------------------------------------------------------

------------
SCF SETTINGS
------------
Hamiltonian:
 Density Functional     Method          .... DFT(GTOs)
 Exchange Functional    Exchange        .... WB97X-V
 Correlation Functional Correlation     .... WB97X-V
 Gradients option       PostSCFGGA      .... off
 Hybrid DFT is turned on
   Fraction HF Exchange ScalHFX         ....  0.167000
   Scaling of DF-GGA-X  ScalDFX         ....  0.000000
   Scaling of DF-GGA-C  ScalDFC         ....  1.000000
   Scaling of DF-LDA-C  ScalLDAC        ....  1.000000
   Perturbative correction              ....  0.000000
   Density functional embedding theory  .... OFF
 Long-range corrected/Screened/Range-Separated Hybrid DFT is turned on
   Amount of maximum screened exact exchange              ....  0.833000
   Range separation parameter mu (erf(mu*r12)/r12)        ....  0.300000
   NL short-range parameter             ....  6.000000
   NL long-range parameter              ....  0.010000


General Settings:
 Integral files         IntName         .... Ag04C2_H_F
 Hartree-Fock type      HFTyp           .... UHF
 Total Charge           Charge          ....    2
 Multiplicity           Mult            ....    2
 Number of Electrons    NEL             ....   75
 Basis Dimension        Dim             ....  241
 Nuclear Repulsion      ENuc            ....    418.3509819036 Eh

Convergence Acceleration:
 DIIS                   CNVDIIS         .... on
   Start iteration      DIISMaxIt       ....    12
   Startup error        DIISStart       ....  0.200000
   # of expansion vecs  DIISMaxEq       ....     5
   Bias factor          DIISBfac        ....   1.050
   Max. coefficient     DIISMaxC        ....  10.000
 Newton-Raphson         CNVNR           .... off
 SOSCF                  CNVSOSCF        .... off
 Level Shifting         CNVShift        .... on
   Level shift para.    LevelShift      ....    0.2500
   Turn off err/grad.   ShiftErr        ....    0.0010
 Zerner damping         CNVZerner       .... off
 Static damping         CNVDamp         .... on
   Fraction old density DampFac         ....    0.7000
   Max. Damping (<1)    DampMax         ....    0.9800
   Min. Damping (>=0)   DampMin         ....    0.0000
   Turn off err/grad.   DampErr         ....    0.1000
 Fernandez-Rico         CNVRico         .... off

SCF Procedure:
 Maximum # iterations   MaxIter         ....   125
 SCF integral mode      SCFMode         .... Direct
   Integral package                     .... LIBINT
 Reset frequency        DirectResetFreq ....    20
 Integral Threshold     Thresh          ....  1.000e-10 Eh
 Primitive CutOff       TCut            ....  1.000e-11 Eh

Convergence Tolerance:
 Convergence Check Mode ConvCheckMode   .... Total+1el-Energy
 Convergence forced     ConvForced      .... 0
 Energy Change          TolE            ....  1.000e-06 Eh
 1-El. energy change                    ....  1.000e-03 Eh
 DIIS Error             TolErr          ....  1.000e-06


Diagonalization of the overlap matrix:
Smallest eigenvalue                        ... 8.572e-04
Time for diagonalization                   ...    0.010 sec
Threshold for overlap eigenvalues          ... 1.000e-08
Number of eigenvalues below threshold      ... 0
Time for construction of square roots      ...    0.007 sec
Total time needed                          ...    0.017 sec

-------------------
DFT GRID GENERATION
-------------------

General Integration Accuracy     IntAcc      ...  4.670
Radial Grid Type                 RadialGrid  ... Gauss-Chebyshev
Angular Grid (max. acc.)         AngularGrid ... Lebedev-302
Angular grid pruning method      GridPruning ... 3 (G Style)
Weight generation scheme         WeightScheme... Becke
Basis function cutoff            BFCut       ...    1.0000e-10
Integration weight cutoff        WCut        ...    1.0000e-14
Grids for H and He will be reduced by one unit

# of grid points (after initial pruning)     ...  46026 (   0.0 sec)
# of grid points (after weights+screening)   ...  44988 (   0.0 sec)
nearest neighbour list constructed           ...    0.0 sec
Grid point re-assignment to atoms done       ...    0.0 sec
Grid point division into batches done        ...    0.4 sec
Reduced shell lists constructed in    0.4 sec

Total number of grid points                  ...    44988
Total number of batches                      ...      705
Average number of points per batch           ...       63
Average number of grid points per atom       ...     8998
Average number of shells per batch           ...    13.13 (18.49%)
Average number of basis functions per batch  ...    32.35 (13.43%)
Average number of large shells per batch     ...     8.87 (67.57%)
Average number of large basis fcns per batch ...    20.42 (63.11%)
Maximum spatial batch extension              ...  27.25, 26.29, 26.69 au
Average spatial batch extension              ...   0.52,  0.44,  0.49 au

Time for grid setup =    0.392 sec

------------------------------
INITIAL GUESS: MODEL POTENTIAL
------------------------------
Loading Hartree-Fock densities                     ... done
  calling /sw/apps/orca/orca_4_2_0_linux_x86-64_openmpi314/orca Ag04C2_H_F_atom47.inp > Ag04C2_H_F_atom47.out in order to generate an atomic fitting density for atom 0 (Ag with ECP) on-the-fly... 
    atom 0 (Ag), assumed electronic state with S=2: 1s2 2s2 2p6 3s2 3p6 4s2 3d10 4p6 5s2 4d9           ... done
Calculating cut-offs                               ... done
Setting up the integral package                    ... done
Initializing the effective Hamiltonian             ... done
Starting the Coulomb interaction                   ... done (   0.0 sec)
Reading the grid                                   ... done
Mapping shells                                     ... done
Starting the XC term evaluation                    ... done (   0.0 sec)
  promolecular density results
     # of electrons  =    189.001384231
     EX              =   -450.297432645
     EC              =    -13.077589102
     EX+EC           =   -463.375021747
Transforming the Hamiltonian                       ... done (   0.0 sec)
Diagonalizing the Hamiltonian                      ... done (   0.0 sec)
Back transforming the eigenvectors                 ... done (   0.0 sec)
Now organizing SCF variables                       ... done
                      ------------------
                      INITIAL GUESS DONE (   1.7 sec)
                      ------------------
--------------
SCF ITERATIONS
--------------
ITER       Energy         Delta-E        Max-DP      RMS-DP      [F,P]     Damp
               ***  Starting incremental Fock matrix formation  ***
  0   -587.7083644936   0.000000000000 0.03320664  0.00085738  0.3692245 0.7000
  1   -587.8622956485  -0.153931154943 0.02628700  0.00068403  0.2744768 0.7000
  2   -587.9424636061  -0.080167957558 0.02008138  0.00049431  0.2050243 0.7000
                               ***Turning on DIIS***
  3   -587.9934211280  -0.050957521886 0.01519964  0.00036567  0.1490175 0.7000
  4   -588.0296445088  -0.036223380798 0.01320775  0.00030387  0.1061855 0.7000
  5   -588.0559099356  -0.026265426794 0.03555225  0.00080516  0.0732073 0.0000
  6   -588.1228860930  -0.066976157437 0.00522009  0.00010486  0.0061817 0.0000
  7   -588.1237807543  -0.000894661288 0.00434249  0.00007942  0.0041187 0.0000
  8   -588.1241954541  -0.000414699845 0.00289645  0.00004912  0.0024690 0.0000
  9   -588.1243817992  -0.000186345058 0.00216170  0.00002716  0.0012969 0.0000
 10   -588.1244323252  -0.000050526028 0.00287355  0.00002713  0.0007370 0.0000
 11   -588.1244534273  -0.000021102065 0.00069923  0.00000565  0.0002370 0.0000
 12   -588.1244548017  -0.000001374397 0.00035308  0.00000265  0.0002413 0.0000
                 **** Energy Check signals convergence ****

               *****************************************************
               *                     SUCCESS                       *
               *           SCF CONVERGED AFTER  13 CYCLES          *
               *****************************************************


Setting up the DFT-NL grid :

General Integration Accuracy     IntAcc      ...  4.340
Radial Grid Type                 RadialGrid  ... Gauss-Chebyshev
Angular Grid (max. acc.)         AngularGrid ... Lebedev-110
Angular grid pruning method      GridPruning ... 3 (G Style)
Weight generation scheme         WeightScheme... Becke
Basis function cutoff            BFCut       ...    1.0000e-10
Integration weight cutoff        WCut        ...    1.0000e-14
Grids for H and He will be reduced by one unit

# of grid points (after initial pruning)     ...  13826 (   0.0 sec)
# of grid points (after weights+screening)   ...  13567 (   0.0 sec)
nearest neighbour list constructed           ...    0.0 sec
Grid point re-assignment to atoms done       ...    0.0 sec
Grid point division into batches done        ...    0.0 sec
Reduced shell lists constructed in    0.0 sec

Total number of grid points                  ...    13567
Total number of batches                      ...      215
Average number of points per batch           ...       63
Average number of grid points per atom       ...     2713
Average number of shells per batch           ...    19.00 (26.76%)
Average number of basis functions per batch  ...    50.40 (20.91%)
Average number of large shells per batch     ...    12.00 (63.16%)
Average number of large basis fcns per batch ...    29.20 (57.94%)
Maximum spatial batch extension              ...  41.88, 20.50, 31.00 au
Average spatial batch extension              ...   0.77,  0.54,  0.65 au

Final grid set up in    0.0 sec

-------------------------------------------------------------------------------
                         DFT-NL dispersion correction                          
-------------------------------------------------------------------------------

SC Energy -588.124455177 
NL    Energy 0.285320715 
SC+NL Energy -587.839134462 
NL done in    0.0 sec
-------------------------------------------------------------------------------

----------------
TOTAL SCF ENERGY
----------------

Total Energy       :         -587.83913446 Eh          -15995.91607 eV

Components:
Nuclear Repulsion  :          418.35098190 Eh           11383.90896 eV
Electronic Energy  :        -1006.19011637 Eh          -27379.82503 eV
One Electron Energy:        -1852.82605847 Eh          -50417.96025 eV
Two Electron Energy:          846.63594210 Eh           23038.13522 eV

Virial components:
Potential Energy   :         -813.87031058 Eh          -22146.53706 eV
Kinetic Energy     :          226.03117612 Eh            6150.62099 eV
Virial Ratio       :            3.60069936


DFT components:
N(Alpha)           :       37.999977537030 electrons
N(Beta)            :       36.999975183515 electrons
N(Total)           :       74.999952720545 electrons
E(X)               :      -34.466186870967 Eh       
E(C)               :       -3.572663520821 Eh       
NL Energy, E(C,NL) :        0.285320714951 Eh       
E(XC)              :      -37.753529676837 Eh       
DFET-embed. en.    :        0.000000000000 Eh       

---------------
SCF CONVERGENCE
---------------

  Last Energy change         ...   -3.7504e-07  Tolerance :   1.0000e-06
  Last MAX-Density change    ...    2.6164e-04  Tolerance :   1.0000e-05
  Last RMS-Density change    ...    1.6859e-06  Tolerance :   1.0000e-06
  Last DIIS Error            ...    6.9148e-05  Tolerance :   1.0000e-06

             **** THE GBW FILE WAS UPDATED (Ag04C2_H_F.gbw) ****
             **** DENSITY FILE WAS UPDATED (Ag04C2_H_F.scfp) ****
             **** ENERGY FILE WAS UPDATED (Ag04C2_H_F.en.tmp) ****
----------------------
UHF SPIN CONTAMINATION
----------------------

Warning: in a DFT calculation there is little theoretical justification to 
         calculate <S**2> as in Hartree-Fock theory. We will do it anyways
         but you should keep in mind that the values have only limited relevance

Expectation value of <S**2>     :     0.759996
Ideal value S*(S+1) for S=0.5   :     0.750000
Deviation                       :     0.009996

             **** THE GBW FILE WAS UPDATED (Ag04C2_H_F.gbw) ****
             **** DENSITY FILE WAS UPDATED (Ag04C2_H_F.scfp) ****
----------------
ORBITAL ENERGIES
----------------
                 SPIN UP ORBITALS
  NO   OCC          E(Eh)            E(eV) 
   0   1.0000      -4.224998      -114.9680 
   1   1.0000      -4.224745      -114.9611 
   2   1.0000      -4.224743      -114.9611 
   3   1.0000      -4.196101      -114.1817 
   4   1.0000      -2.827404       -76.9376 
   5   1.0000      -2.824986       -76.8718 
   6   1.0000      -2.824986       -76.8718 
   7   1.0000      -2.823060       -76.8194 
   8   1.0000      -2.823035       -76.8187 
   9   1.0000      -2.823033       -76.8186 
  10   1.0000      -2.822454       -76.8029 
  11   1.0000      -2.822451       -76.8028 
  12   1.0000      -2.822224       -76.7966 
  13   1.0000      -2.795491       -76.0692 
  14   1.0000      -2.794354       -76.0382 
  15   1.0000      -2.794353       -76.0382 
  16   1.0000      -0.924379       -25.1536 
  17   1.0000      -0.865947       -23.5636 
  18   1.0000      -0.847944       -23.0737 
  19   1.0000      -0.847940       -23.0736 
  20   1.0000      -0.834588       -22.7103 
  21   1.0000      -0.834584       -22.7102 
  22   1.0000      -0.833410       -22.6783 
  23   1.0000      -0.819504       -22.2998 
  24   1.0000      -0.819497       -22.2996 
  25   1.0000      -0.810750       -22.0616 
  26   1.0000      -0.810745       -22.0615 
  27   1.0000      -0.807758       -21.9802 
  28   1.0000      -0.804962       -21.9041 
  29   1.0000      -0.804960       -21.9041 
  30   1.0000      -0.795985       -21.6598 
  31   1.0000      -0.789488       -21.4830 
  32   1.0000      -0.789476       -21.4827 
  33   1.0000      -0.785358       -21.3707 
  34   1.0000      -0.778958       -21.1965 
  35   1.0000      -0.778950       -21.1963 
  36   1.0000      -0.764157       -20.7938 
  37   1.0000      -0.614382       -16.7182 
  38   0.0000      -0.365339        -9.9414 
  39   0.0000      -0.365338        -9.9413 
  40   0.0000      -0.301527        -8.2050 
  41   0.0000      -0.260335        -7.0841 
  42   0.0000      -0.242238        -6.5916 
  43   0.0000      -0.242238        -6.5916 
  44   0.0000      -0.237129        -6.4526 
  45   0.0000      -0.237128        -6.4526 
  46   0.0000      -0.153342        -4.1726 
  47   0.0000      -0.136122        -3.7041 
  48   0.0000      -0.136120        -3.7040 
  49   0.0000      -0.132067        -3.5937 
  50   0.0000      -0.132067        -3.5937 
  51   0.0000      -0.126846        -3.4516 
  52   0.0000      -0.124840        -3.3971 
  53   0.0000      -0.087759        -2.3880 
  54   0.0000      -0.069944        -1.9033 
  55   0.0000      -0.050996        -1.3877 
  56   0.0000      -0.050995        -1.3876 
  57   0.0000      -0.043381        -1.1805 
  58   0.0000      -0.041686        -1.1343 
  59   0.0000      -0.041686        -1.1343 
  60   0.0000      -0.023103        -0.6287 
  61   0.0000      -0.023097        -0.6285 
  62   0.0000      -0.016221        -0.4414 
  63   0.0000       0.033018         0.8985 
  64   0.0000       0.033019         0.8985 
  65   0.0000       0.061324         1.6687 
  66   0.0000       0.069694         1.8965 
  67   0.0000       0.070864         1.9283 
  68   0.0000       0.070868         1.9284 
  69   0.0000       0.079470         2.1625 
  70   0.0000       0.110035         2.9942 
  71   0.0000       0.110043         2.9944 
  72   0.0000       0.174052         4.7362 
  73   0.0000       0.174054         4.7362 
  74   0.0000       0.235704         6.4138 
  75   0.0000       0.242035         6.5861 
  76   0.0000       0.242037         6.5862 
  77   0.0000       0.280482         7.6323 
  78   0.0000       0.297034         8.0827 
  79   0.0000       0.329624         8.9695 
  80   0.0000       0.346284         9.4229 
  81   0.0000       0.346286         9.4229 
  82   0.0000       0.355460         9.6726 
  83   0.0000       0.355460         9.6726 
  84   0.0000       0.375715        10.2237 
  85   0.0000       0.375723        10.2239 
  86   0.0000       0.403540        10.9809 
  87   0.0000       0.427429        11.6309 
  88   0.0000       0.427452        11.6316 
  89   0.0000       0.462927        12.5969 
  90   0.0000       0.462927        12.5969 
  91   0.0000       0.474037        12.8992 
  92   0.0000       0.480735        13.0815 
  93   0.0000       0.732895        19.9431 
  94   0.0000       0.732925        19.9439 
  95   0.0000       0.817613        22.2484 
  96   0.0000       1.238840        33.7106 
  97   0.0000       1.238850        33.7108 
  98   0.0000       1.286679        35.0123 
  99   0.0000       1.291730        35.1498 
 100   0.0000       1.298621        35.3373 
 101   0.0000       1.298626        35.3374 
 102   0.0000       1.303292        35.4644 
 103   0.0000       1.303309        35.4648 
 104   0.0000       1.303692        35.4753 
 105   0.0000       1.315133        35.7866 
 106   0.0000       1.315145        35.7869 
 107   0.0000       1.321852        35.9694 
 108   0.0000       1.334290        36.3079 
 109   0.0000       1.334300        36.3082 
 110   0.0000       1.341733        36.5104 
 111   0.0000       1.342251        36.5245 
 112   0.0000       1.342253        36.5246 
 113   0.0000       1.343630        36.5620 
 114   0.0000       1.347639        36.6711 
 115   0.0000       1.350958        36.7614 
 116   0.0000       1.350960        36.7615 
 117   0.0000       1.359295        36.9883 
 118   0.0000       1.376676        37.4613 
 119   0.0000       1.376683        37.4614 
 120   0.0000       1.381482        37.5920 
 121   0.0000       1.381483        37.5921 
 122   0.0000       1.393787        37.9269 
 123   0.0000       1.426978        38.8300 
 124   0.0000       1.458809        39.6962 
 125   0.0000       1.458817        39.6964 
 126   0.0000       1.470844        40.0237 
 127   0.0000       1.494376        40.6640 
 128   0.0000       1.494381        40.6642 
 129   0.0000       1.501522        40.8585 
 130   0.0000       1.552265        42.2393 
 131   0.0000       1.552280        42.2397 
 132   0.0000       1.571350        42.7586 
 133   0.0000       1.632367        44.4190 
 134   0.0000       1.649775        44.8927 
 135   0.0000       1.649787        44.8930 
 136   0.0000       1.819890        49.5217 
 137   0.0000       1.819915        49.5224 
 138   0.0000       1.833062        49.8801 
 139   0.0000       1.844042        50.1789 
 140   0.0000       1.845206        50.2106 
 141   0.0000       1.845236        50.2114 
 142   0.0000       1.886978        51.3473 
 143   0.0000       1.891914        51.4816 
 144   0.0000       1.891921        51.4818 
 145   0.0000       1.915586        52.1258 
 146   0.0000       1.915616        52.1266 
 147   0.0000       1.915833        52.1325 
 148   0.0000       1.923306        52.3358 
 149   0.0000       1.923334        52.3366 
 150   0.0000       1.938937        52.7611 
 151   0.0000       1.938960        52.7618 
 152   0.0000       1.942599        52.8608 
 153   0.0000       1.965067        53.4722 
 154   0.0000       2.014806        54.8257 
 155   0.0000       2.014806        54.8257 
 156   0.0000       2.274031        61.8795 
 157   0.0000       2.489786        67.7505 
 158   0.0000       2.536226        69.0142 
 159   0.0000       2.536238        69.0145 
 160   0.0000       2.853099        77.6368 
 161   0.0000       3.020978        82.2050 
 162   0.0000       3.021027        82.2063 
 163   0.0000       3.061347        83.3035 
 164   0.0000       3.326436        90.5169 
 165   0.0000       3.326544        90.5199 
 166   0.0000       3.874385       105.4274 
 167   0.0000       3.874393       105.4276 
 168   0.0000       3.923762       106.7710 
 169   0.0000       4.538316       123.4939 
 170   0.0000       4.538351       123.4948 
 171   0.0000       4.554492       123.9340 
 172   0.0000       4.560256       124.0909 
 173   0.0000       4.560258       124.0909 
 174   0.0000       4.563986       124.1924 
 175   0.0000       4.579561       124.6162 
 176   0.0000       4.580447       124.6403 
 177   0.0000       4.580468       124.6409 
 178   0.0000       4.581647       124.6729 
 179   0.0000       4.598156       125.1222 
 180   0.0000       4.598266       125.1252 
 181   0.0000       4.598291       125.1259 
 182   0.0000       4.603355       125.2637 
 183   0.0000       4.610055       125.4460 
 184   0.0000       4.610076       125.4465 
 185   0.0000       4.621095       125.7464 
 186   0.0000       4.632967       126.0694 
 187   0.0000       4.632978       126.0697 
 188   0.0000       4.708988       128.1381 
 189   0.0000       4.709037       128.1394 
 190   0.0000       4.718092       128.3858 
 191   0.0000       4.747877       129.1963 
 192   0.0000       4.763164       129.6123 
 193   0.0000       4.763176       129.6126 
 194   0.0000       4.907671       133.5445 
 195   0.0000       4.907699       133.5453 
 196   0.0000       4.942135       134.4823 
 197   0.0000       5.286793       143.8609 
 198   0.0000       5.288253       143.9007 
 199   0.0000       5.288328       143.9027 
 200   0.0000       5.288494       143.9072 
 201   0.0000       5.289014       143.9214 
 202   0.0000       5.289110       143.9240 
 203   0.0000       5.289218       143.9269 
 204   0.0000       5.290507       143.9620 
 205   0.0000       5.290701       143.9673 
 206   0.0000       5.290826       143.9707 
 207   0.0000       5.291377       143.9857 
 208   0.0000       5.291402       143.9864 
 209   0.0000       5.291661       143.9934 
 210   0.0000       5.292194       144.0079 
 211   0.0000       5.292394       144.0134 
 212   0.0000       5.292565       144.0180 
 213   0.0000       5.293406       144.0409 
 214   0.0000       5.293455       144.0422 
 215   0.0000       5.297662       144.1567 
 216   0.0000       5.297677       144.1571 
 217   0.0000       5.299974       144.2196 
 218   0.0000       5.302541       144.2895 
 219   0.0000       5.302602       144.2911 
 220   0.0000       5.311372       144.5298 
 221   0.0000       5.317137       144.6867 
 222   0.0000       5.317652       144.7007 
 223   0.0000       5.317925       144.7081 
 224   0.0000       5.317937       144.7084 
 225   0.0000       5.318234       144.7165 
 226   0.0000       5.318327       144.7190 
 227   0.0000       5.318964       144.7364 
 228   0.0000       5.323084       144.8485 
 229   0.0000       5.323697       144.8652 
 230   0.0000       5.428854       147.7266 
 231   0.0000       5.428928       147.7286 
 232   0.0000       5.465625       148.7272 
 233   0.0000      33.215832       903.8487 
 234   0.0000      33.466266       910.6634 
 235   0.0000      33.616453       914.7502 
 236   0.0000      33.616457       914.7503 
 237   0.0000     110.562899      3008.5694 
 238   0.0000     110.648797      3010.9068 
 239   0.0000     110.684365      3011.8747 
 240   0.0000     110.684366      3011.8747 

                 SPIN DOWN ORBITALS
  NO   OCC          E(Eh)            E(eV) 
   0   1.0000      -4.223144      -114.9176 
   1   1.0000      -4.222894      -114.9108 
   2   1.0000      -4.222893      -114.9108 
   3   1.0000      -4.195503      -114.1654 
   4   1.0000      -2.824785       -76.8663 
   5   1.0000      -2.823463       -76.8303 
   6   1.0000      -2.823462       -76.8303 
   7   1.0000      -2.821626       -76.7804 
   8   1.0000      -2.821191       -76.7685 
   9   1.0000      -2.821188       -76.7684 
  10   1.0000      -2.820183       -76.7411 
  11   1.0000      -2.819953       -76.7348 
  12   1.0000      -2.819950       -76.7347 
  13   1.0000      -2.795222       -76.0619 
  14   1.0000      -2.794015       -76.0290 
  15   1.0000      -2.794014       -76.0290 
  16   1.0000      -0.906636       -24.6708 
  17   1.0000      -0.861781       -23.4503 
  18   1.0000      -0.847286       -23.0558 
  19   1.0000      -0.847282       -23.0557 
  20   1.0000      -0.831567       -22.6281 
  21   1.0000      -0.831563       -22.6280 
  22   1.0000      -0.830350       -22.5950 
  23   1.0000      -0.817846       -22.2547 
  24   1.0000      -0.817838       -22.2545 
  25   1.0000      -0.806923       -21.9575 
  26   1.0000      -0.806137       -21.9361 
  27   1.0000      -0.806127       -21.9358 
  28   1.0000      -0.801011       -21.7966 
  29   1.0000      -0.800999       -21.7963 
  30   1.0000      -0.791525       -21.5385 
  31   1.0000      -0.787366       -21.4253 
  32   1.0000      -0.787355       -21.4250 
  33   1.0000      -0.784444       -21.3458 
  34   1.0000      -0.775986       -21.1156 
  35   1.0000      -0.775977       -21.1154 
  36   1.0000      -0.744829       -20.2678 
  37   0.0000      -0.403177       -10.9710 
  38   0.0000      -0.359486        -9.7821 
  39   0.0000      -0.359486        -9.7821 
  40   0.0000      -0.284245        -7.7347 
  41   0.0000      -0.252141        -6.8611 
  42   0.0000      -0.237787        -6.4705 
  43   0.0000      -0.237787        -6.4705 
  44   0.0000      -0.230574        -6.2742 
  45   0.0000      -0.230574        -6.2742 
  46   0.0000      -0.143693        -3.9101 
  47   0.0000      -0.133553        -3.6342 
  48   0.0000      -0.133553        -3.6342 
  49   0.0000      -0.128700        -3.5021 
  50   0.0000      -0.128699        -3.5021 
  51   0.0000      -0.126080        -3.4308 
  52   0.0000      -0.115654        -3.1471 
  53   0.0000      -0.086302        -2.3484 
  54   0.0000      -0.066113        -1.7990 
  55   0.0000      -0.045535        -1.2391 
  56   0.0000      -0.045534        -1.2390 
  57   0.0000      -0.039507        -1.0750 
  58   0.0000      -0.038494        -1.0475 
  59   0.0000      -0.038493        -1.0474 
  60   0.0000      -0.021040        -0.5725 
  61   0.0000      -0.021038        -0.5725 
  62   0.0000      -0.011445        -0.3114 
  63   0.0000       0.037101         1.0096 
  64   0.0000       0.037101         1.0096 
  65   0.0000       0.062105         1.6900 
  66   0.0000       0.073225         1.9925 
  67   0.0000       0.073226         1.9926 
  68   0.0000       0.078592         2.1386 
  69   0.0000       0.087800         2.3891 
  70   0.0000       0.110724         3.0130 
  71   0.0000       0.110727         3.0130 
  72   0.0000       0.173354         4.7172 
  73   0.0000       0.173357         4.7173 
  74   0.0000       0.237757         6.4697 
  75   0.0000       0.241451         6.5702 
  76   0.0000       0.241454         6.5703 
  77   0.0000       0.279334         7.6011 
  78   0.0000       0.299691         8.1550 
  79   0.0000       0.334077         9.0907 
  80   0.0000       0.347833         9.4650 
  81   0.0000       0.347839         9.4652 
  82   0.0000       0.354967         9.6591 
  83   0.0000       0.354971         9.6592 
  84   0.0000       0.376286        10.2393 
  85   0.0000       0.376289        10.2393 
  86   0.0000       0.406849        11.0709 
  87   0.0000       0.428073        11.6485 
  88   0.0000       0.428074        11.6485 
  89   0.0000       0.464810        12.6481 
  90   0.0000       0.464811        12.6482 
  91   0.0000       0.473756        12.8916 
  92   0.0000       0.484486        13.1835 
  93   0.0000       0.740736        20.1564 
  94   0.0000       0.740755        20.1570 
  95   0.0000       0.826718        22.4961 
  96   0.0000       1.240067        33.7439 
  97   0.0000       1.240076        33.7442 
  98   0.0000       1.288550        35.0632 
  99   0.0000       1.293906        35.2090 
 100   0.0000       1.299669        35.3658 
 101   0.0000       1.299673        35.3659 
 102   0.0000       1.305343        35.5202 
 103   0.0000       1.305825        35.5333 
 104   0.0000       1.305844        35.5338 
 105   0.0000       1.316038        35.8112 
 106   0.0000       1.316048        35.8115 
 107   0.0000       1.322674        35.9918 
 108   0.0000       1.335945        36.3529 
 109   0.0000       1.335959        36.3533 
 110   0.0000       1.344301        36.5803 
 111   0.0000       1.344302        36.5803 
 112   0.0000       1.345025        36.6000 
 113   0.0000       1.347861        36.6772 
 114   0.0000       1.351602        36.7790 
 115   0.0000       1.352951        36.8157 
 116   0.0000       1.352958        36.8159 
 117   0.0000       1.360683        37.0261 
 118   0.0000       1.378171        37.5019 
 119   0.0000       1.378178        37.5021 
 120   0.0000       1.383180        37.6383 
 121   0.0000       1.383183        37.6383 
 122   0.0000       1.394375        37.9429 
 123   0.0000       1.430208        38.9179 
 124   0.0000       1.462478        39.7960 
 125   0.0000       1.462483        39.7962 
 126   0.0000       1.472377        40.0654 
 127   0.0000       1.495519        40.6951 
 128   0.0000       1.495524        40.6953 
 129   0.0000       1.506250        40.9871 
 130   0.0000       1.555474        42.3266 
 131   0.0000       1.555490        42.3270 
 132   0.0000       1.575448        42.8701 
 133   0.0000       1.631955        44.4077 
 134   0.0000       1.650340        44.9080 
 135   0.0000       1.650352        44.9084 
 136   0.0000       1.821392        49.5626 
 137   0.0000       1.821416        49.5633 
 138   0.0000       1.836517        49.9742 
 139   0.0000       1.844397        50.1886 
 140   0.0000       1.848007        50.2868 
 141   0.0000       1.848047        50.2879 
 142   0.0000       1.892880        51.5079 
 143   0.0000       1.893164        51.5156 
 144   0.0000       1.893167        51.5157 
 145   0.0000       1.916471        52.1498 
 146   0.0000       1.916501        52.1506 
 147   0.0000       1.918984        52.2182 
 148   0.0000       1.925102        52.3847 
 149   0.0000       1.925131        52.3855 
 150   0.0000       1.939878        52.7868 
 151   0.0000       1.939904        52.7875 
 152   0.0000       1.942708        52.8638 
 153   0.0000       1.969920        53.6042 
 154   0.0000       2.017570        54.9009 
 155   0.0000       2.017573        54.9010 
 156   0.0000       2.277372        61.9704 
 157   0.0000       2.492259        67.8178 
 158   0.0000       2.537966        69.0616 
 159   0.0000       2.537972        69.0617 
 160   0.0000       2.881847        78.4190 
 161   0.0000       3.039842        82.7183 
 162   0.0000       3.039881        82.7194 
 163   0.0000       3.080701        83.8301 
 164   0.0000       3.346389        91.0599 
 165   0.0000       3.346492        91.0627 
 166   0.0000       3.902363       106.1887 
 167   0.0000       3.902372       106.1889 
 168   0.0000       3.952858       107.5627 
 169   0.0000       4.539864       123.5360 
 170   0.0000       4.539898       123.5369 
 171   0.0000       4.555303       123.9561 
 172   0.0000       4.561645       124.1287 
 173   0.0000       4.561647       124.1287 
 174   0.0000       4.565091       124.2224 
 175   0.0000       4.581395       124.6661 
 176   0.0000       4.581802       124.6772 
 177   0.0000       4.581823       124.6777 
 178   0.0000       4.583540       124.7245 
 179   0.0000       4.599374       125.1553 
 180   0.0000       4.599398       125.1560 
 181   0.0000       4.600123       125.1757 
 182   0.0000       4.605077       125.3105 
 183   0.0000       4.611497       125.4852 
 184   0.0000       4.611519       125.4858 
 185   0.0000       4.623339       125.8074 
 186   0.0000       4.635553       126.1398 
 187   0.0000       4.635564       126.1401 
 188   0.0000       4.710803       128.1875 
 189   0.0000       4.710853       128.1888 
 190   0.0000       4.721036       128.4659 
 191   0.0000       4.748282       129.2073 
 192   0.0000       4.764842       129.6579 
 193   0.0000       4.764856       129.6583 
 194   0.0000       4.912780       133.6835 
 195   0.0000       4.912803       133.6842 
 196   0.0000       4.947079       134.6169 
 197   0.0000       5.288037       143.8948 
 198   0.0000       5.288913       143.9186 
 199   0.0000       5.289032       143.9219 
 200   0.0000       5.289462       143.9336 
 201   0.0000       5.289507       143.9348 
 202   0.0000       5.289936       143.9465 
 203   0.0000       5.290213       143.9540 
 204   0.0000       5.291246       143.9821 
 205   0.0000       5.291429       143.9871 
 206   0.0000       5.291816       143.9976 
 207   0.0000       5.291839       143.9983 
 208   0.0000       5.291905       144.0001 
 209   0.0000       5.292394       144.0134 
 210   0.0000       5.292396       144.0134 
 211   0.0000       5.292907       144.0273 
 212   0.0000       5.292942       144.0283 
 213   0.0000       5.294977       144.0836 
 214   0.0000       5.295048       144.0856 
 215   0.0000       5.298259       144.1730 
 216   0.0000       5.298286       144.1737 
 217   0.0000       5.301235       144.2539 
 218   0.0000       5.304550       144.3441 
 219   0.0000       5.304620       144.3460 
 220   0.0000       5.313303       144.5823 
 221   0.0000       5.317404       144.6939 
 222   0.0000       5.317851       144.7061 
 223   0.0000       5.318171       144.7148 
 224   0.0000       5.318200       144.7156 
 225   0.0000       5.318683       144.7287 
 226   0.0000       5.318749       144.7305 
 227   0.0000       5.319179       144.7422 
 228   0.0000       5.323263       144.8533 
 229   0.0000       5.323874       144.8700 
 230   0.0000       5.432235       147.8186 
 231   0.0000       5.432313       147.8207 
 232   0.0000       5.469003       148.8191 
 233   0.0000      33.216645       903.8709 
 234   0.0000      33.467154       910.6876 
 235   0.0000      33.617120       914.7683 
 236   0.0000      33.617123       914.7684 
 237   0.0000     110.563237      3008.5786 
 238   0.0000     110.649307      3010.9207 
 239   0.0000     110.684599      3011.8811 
 240   0.0000     110.684600      3011.8811 

                    ********************************
                    * MULLIKEN POPULATION ANALYSIS *
                    ********************************

--------------------------------------------
MULLIKEN ATOMIC CHARGES AND SPIN POPULATIONS
--------------------------------------------
   0 Ag:    0.509074    0.087250
   1 Ag:    0.508831    0.087327
   2 Ag:    0.508837    0.087329
   3 Ag:    0.392466    0.481101
   4 H :    0.080792    0.256992
Sum of atomic charges         :    2.0000000
Sum of atomic spin populations:    1.0000000

-----------------------------------------------------
MULLIKEN REDUCED ORBITAL CHARGES AND SPIN POPULATIONS
-----------------------------------------------------
CHARGE
  0 Ags       :     2.382531  s :     2.382531
      pz      :     2.092797  p :     6.217742
      px      :     2.010929
      py      :     2.114016
      dz2     :     1.982421  d :     9.888981
      dxz     :     1.996629
      dyz     :     1.960287
      dx2y2   :     1.986861
      dxy     :     1.962784
      f0      :     0.000208  f :     0.001654
      f+1     :     0.000078
      f-1     :     0.000243
      f+2     :     0.000408
      f-2     :     0.000126
      f+3     :     0.000328
      f-3     :     0.000263
      g0      :     0.000002  g :     0.000018
      g+1     :     0.000001
      g-1     :     0.000002
      g+2     :     0.000002
      g-2     :     0.000002
      g+3     :     0.000001
      g-3     :     0.000002
      g+4     :     0.000003
      g-4     :     0.000003
  1 Ags       :     2.382682  s :     2.382682
      pz      :     2.092793  p :     6.217823
      px      :     2.088299
      py      :     2.036730
      dz2     :     1.982426  d :     9.888991
      dxz     :     1.969367
      dyz     :     1.987538
      dx2y2   :     1.968812
      dxy     :     1.980847
      f0      :     0.000208  f :     0.001655
      f+1     :     0.000202
      f-1     :     0.000120
      f+2     :     0.000197
      f-2     :     0.000338
      f+3     :     0.000327
      f-3     :     0.000264
      g0      :     0.000002  g :     0.000018
      g+1     :     0.000002
      g-1     :     0.000001
      g+2     :     0.000002
      g-2     :     0.000002
      g+3     :     0.000001
      g-3     :     0.000003
      g+4     :     0.000003
      g-4     :     0.000003
  2 Ags       :     2.382678  s :     2.382678
      pz      :     2.092793  p :     6.217821
      px      :     2.088298
      py      :     2.036730
      dz2     :     1.982426  d :     9.888991
      dxz     :     1.969367
      dyz     :     1.987538
      dx2y2   :     1.968812
      dxy     :     1.980847
      f0      :     0.000208  f :     0.001655
      f+1     :     0.000202
      f-1     :     0.000120
      f+2     :     0.000197
      f-2     :     0.000338
      f+3     :     0.000327
      f-3     :     0.000264
      g0      :     0.000002  g :     0.000018
      g+1     :     0.000002
      g-1     :     0.000001
      g+2     :     0.000002
      g-2     :     0.000002
      g+3     :     0.000001
      g-3     :     0.000003
      g+4     :     0.000003
      g-4     :     0.000003
  3 Ags       :     2.578285  s :     2.578285
      pz      :     2.086397  p :     6.101988
      px      :     2.007795
      py      :     2.007796
      dz2     :     1.991557  d :     9.926693
      dxz     :     1.972155
      dyz     :     1.972156
      dx2y2   :     1.995412
      dxy     :     1.995412
      f0      :     0.000104  f :     0.000564
      f+1     :     0.000135
      f-1     :     0.000135
      f+2     :     0.000081
      f-2     :     0.000081
      f+3     :     0.000011
      f-3     :     0.000016
      g0      :     0.000001  g :     0.000005
      g+1     :     0.000001
      g-1     :     0.000001
      g+2     :     0.000001
      g-2     :     0.000001
      g+3     :     0.000000
      g-3     :     0.000000
      g+4     :     0.000000
      g-4     :     0.000000
  4 H s       :     0.938028  s :     0.938028
      pz      :    -0.027588  p :    -0.021195
      px      :     0.003198
      py      :     0.003195
      dz2     :     0.000486  d :     0.002375
      dxz     :     0.000512
      dyz     :     0.000511
      dx2y2   :     0.000433
      dxy     :     0.000433

SPIN
  0 Ags       :    -0.006027  s :    -0.006027
      pz      :     0.071997  p :     0.064498
      px      :     0.000070
      py      :    -0.007568
      dz2     :    -0.001254  d :     0.028571
      dxz     :    -0.000489
      dyz     :     0.028297
      dx2y2   :     0.001987
      dxy     :     0.000029
      f0      :     0.000025  f :     0.000206
      f+1     :     0.000001
      f-1     :     0.000006
      f+2     :     0.000156
      f-2     :    -0.000002
      f+3     :    -0.000001
      f-3     :     0.000020
      g0      :     0.000000  g :     0.000002
      g+1     :     0.000000
      g-1     :    -0.000000
      g+2     :     0.000000
      g-2     :    -0.000000
      g+3     :     0.000000
      g-3     :     0.000001
      g+4     :     0.000000
      g-4     :     0.000000
  1 Ags       :    -0.005988  s :    -0.005988
      pz      :     0.071994  p :     0.064526
      px      :    -0.005637
      py      :    -0.001830
      dz2     :    -0.001252  d :     0.028581
      dxz     :     0.021100
      dyz     :     0.006708
      dx2y2   :     0.000521
      dxy     :     0.001504
      f0      :     0.000025  f :     0.000206
      f+1     :     0.000005
      f-1     :     0.000002
      f+2     :     0.000038
      f-2     :     0.000117
      f+3     :    -0.000001
      f-3     :     0.000020
      g0      :     0.000000  g :     0.000002
      g+1     :    -0.000000
      g-1     :     0.000000
      g+2     :     0.000000
      g-2     :     0.000000
      g+3     :     0.000000
      g-3     :     0.000001
      g+4     :     0.000000
      g-4     :     0.000000
  2 Ags       :    -0.005987  s :    -0.005987
      pz      :     0.071994  p :     0.064527
      px      :    -0.005637
      py      :    -0.001830
      dz2     :    -0.001252  d :     0.028581
      dxz     :     0.021100
      dyz     :     0.006708
      dx2y2   :     0.000521
      dxy     :     0.001504
      f0      :     0.000025  f :     0.000206
      f+1     :     0.000005
      f-1     :     0.000002
      f+2     :     0.000038
      f-2     :     0.000117
      f+3     :    -0.000001
      f-3     :     0.000020
      g0      :     0.000000  g :     0.000002
      g+1     :    -0.000000
      g-1     :     0.000000
      g+2     :     0.000000
      g-2     :     0.000000
      g+3     :     0.000000
      g-3     :     0.000001
      g+4     :     0.000000
      g-4     :     0.000000
  3 Ags       :     0.451751  s :     0.451751
      pz      :     0.035460  p :     0.037948
      px      :     0.001244
      py      :     0.001244
      dz2     :    -0.001006  d :    -0.008611
      dxz     :    -0.003478
      dyz     :    -0.003475
      dx2y2   :    -0.000327
      dxy     :    -0.000327
      f0      :     0.000009  f :     0.000014
      f+1     :    -0.000000
      f-1     :    -0.000000
      f+2     :     0.000001
      f-2     :     0.000001
      f+3     :     0.000000
      f-3     :     0.000003
      g0      :     0.000000  g :     0.000000
      g+1     :    -0.000000
      g-1     :    -0.000000
      g+2     :    -0.000000
      g-2     :    -0.000000
      g+3     :     0.000000
      g-3     :     0.000000
      g+4     :     0.000000
      g-4     :     0.000000
  4 H s       :     0.273145  s :     0.273145
      pz      :    -0.016378  p :    -0.016164
      px      :     0.000107
      py      :     0.000107
      dz2     :     0.000018  d :     0.000010
      dxz     :    -0.000009
      dyz     :    -0.000009
      dx2y2   :     0.000005
      dxy     :     0.000005


                     *******************************
                     * LOEWDIN POPULATION ANALYSIS *
                     *******************************

-------------------------------------------
LOEWDIN ATOMIC CHARGES AND SPIN POPULATIONS
-------------------------------------------
   0 Ag:    0.545540    0.176523
   1 Ag:    0.545521    0.176532
   2 Ag:    0.545521    0.176532
   3 Ag:    0.507058    0.297228
   4 H :   -0.143640    0.173185

----------------------------------------------------
LOEWDIN REDUCED ORBITAL CHARGES AND SPIN POPULATIONS
----------------------------------------------------
CHARGE
  0 Ags       :     2.219999  s :     2.219999
      pz      :     2.148558  p :     6.324367
      px      :     2.017269
      py      :     2.158541
      dz2     :     1.982192  d :     9.907184
      dxz     :     1.992986
      dyz     :     1.976120
      dx2y2   :     1.989790
      dxy     :     1.966096
      f0      :     0.000335  f :     0.002879
      f+1     :     0.000120
      f-1     :     0.000387
      f+2     :     0.000952
      f-2     :     0.000152
      f+3     :     0.000508
      f-3     :     0.000425
      g0      :     0.000003  g :     0.000030
      g+1     :     0.000001
      g-1     :     0.000003
      g+2     :     0.000004
      g-2     :     0.000002
      g+3     :     0.000001
      g-3     :     0.000008
      g+4     :     0.000004
      g-4     :     0.000004
  1 Ags       :     2.220016  s :     2.220016
      pz      :     2.148554  p :     6.324369
      px      :     2.123226
      py      :     2.052589
      dz2     :     1.982193  d :     9.907183
      dxz     :     1.980333
      dyz     :     1.988766
      dx2y2   :     1.972028
      dxy     :     1.983863
      f0      :     0.000335  f :     0.002880
      f+1     :     0.000321
      f-1     :     0.000187
      f+2     :     0.000352
      f-2     :     0.000752
      f+3     :     0.000508
      f-3     :     0.000425
      g0      :     0.000003  g :     0.000030
      g+1     :     0.000003
      g-1     :     0.000001
      g+2     :     0.000003
      g-2     :     0.000003
      g+3     :     0.000001
      g-3     :     0.000008
      g+4     :     0.000004
      g-4     :     0.000004
  2 Ags       :     2.220016  s :     2.220016
      pz      :     2.148554  p :     6.324369
      px      :     2.123226
      py      :     2.052589
      dz2     :     1.982193  d :     9.907183
      dxz     :     1.980333
      dyz     :     1.988766
      dx2y2   :     1.972028
      dxy     :     1.983863
      f0      :     0.000335  f :     0.002880
      f+1     :     0.000321
      f-1     :     0.000187
      f+2     :     0.000352
      f-2     :     0.000752
      f+3     :     0.000508
      f-3     :     0.000425
      g0      :     0.000003  g :     0.000030
      g+1     :     0.000003
      g-1     :     0.000001
      g+2     :     0.000003
      g-2     :     0.000003
      g+3     :     0.000001
      g-3     :     0.000008
      g+4     :     0.000004
      g-4     :     0.000004
  3 Ags       :     2.398908  s :     2.398908
      pz      :     2.123501  p :     6.151389
      px      :     2.013944
      py      :     2.013944
      dz2     :     1.997746  d :     9.941725
      dxz     :     1.976201
      dyz     :     1.976202
      dx2y2   :     1.995787
      dxy     :     1.995788
      f0      :     0.000159  f :     0.000912
      f+1     :     0.000242
      f-1     :     0.000242
      f+2     :     0.000116
      f-2     :     0.000116
      f+3     :     0.000017
      f-3     :     0.000019
      g0      :     0.000001  g :     0.000008
      g+1     :     0.000002
      g-1     :     0.000002
      g+2     :     0.000001
      g-2     :     0.000001
      g+3     :     0.000000
      g-3     :     0.000000
      g+4     :     0.000000
      g-4     :     0.000000
  4 H s       :     0.853858  s :     0.853858
      pz      :     0.120048  p :     0.279046
      px      :     0.079503
      py      :     0.079495
      dz2     :     0.001543  d :     0.010736
      dxz     :     0.002656
      dyz     :     0.002655
      dx2y2   :     0.001941
      dxy     :     0.001940

SPIN
  0 Ags       :     0.003182  s :     0.003182
      pz      :     0.121286  p :     0.123548
      px      :     0.000141
      py      :     0.002120
      dz2     :    -0.000002  d :     0.049192
      dxz     :    -0.000438
      dyz     :     0.046456
      dx2y2   :     0.003017
      dxy     :     0.000161
      f0      :     0.000058  f :     0.000596
      f+1     :     0.000001
      f-1     :     0.000023
      f+2     :     0.000441
      f-2     :    -0.000002
      f+3     :     0.000000
      f-3     :     0.000074
      g0      :     0.000001  g :     0.000006
      g+1     :    -0.000000
      g-1     :     0.000000
      g+2     :     0.000001
      g-2     :    -0.000000
      g+3     :     0.000000
      g-3     :     0.000003
      g+4     :     0.000001
      g-4     :     0.000000
  1 Ags       :     0.003188  s :     0.003188
      pz      :     0.121284  p :     0.123548
      px      :     0.001628
      py      :     0.000636
      dz2     :    -0.000002  d :     0.049194
      dxz     :     0.034731
      dyz     :     0.011286
      dx2y2   :     0.000876
      dxy     :     0.002304
      f0      :     0.000058  f :     0.000596
      f+1     :     0.000017
      f-1     :     0.000006
      f+2     :     0.000109
      f-2     :     0.000331
      f+3     :     0.000000
      f-3     :     0.000074
      g0      :     0.000001  g :     0.000006
      g+1     :     0.000000
      g-1     :     0.000000
      g+2     :     0.000000
      g-2     :     0.000001
      g+3     :     0.000000
      g-3     :     0.000003
      g+4     :     0.000000
      g-4     :     0.000001
  2 Ags       :     0.003188  s :     0.003188
      pz      :     0.121284  p :     0.123548
      px      :     0.001628
      py      :     0.000636
      dz2     :    -0.000002  d :     0.049194
      dxz     :     0.034731
      dyz     :     0.011286
      dx2y2   :     0.000876
      dxy     :     0.002304
      f0      :     0.000058  f :     0.000596
      f+1     :     0.000017
      f-1     :     0.000006
      f+2     :     0.000109
      f-2     :     0.000331
      f+3     :     0.000000
      f-3     :     0.000074
      g0      :     0.000001  g :     0.000006
      g+1     :     0.000000
      g-1     :     0.000000
      g+2     :     0.000000
      g-2     :     0.000001
      g+3     :     0.000000
      g-3     :     0.000003
      g+4     :     0.000000
      g-4     :     0.000001
  3 Ags       :     0.299902  s :     0.299902
      pz      :     0.005592  p :     0.007351
      px      :     0.000879
      py      :     0.000879
      dz2     :    -0.002252  d :    -0.010023
      dxz     :    -0.003635
      dyz     :    -0.003632
      dx2y2   :    -0.000252
      dxy     :    -0.000252
      f0      :     0.000015  f :    -0.000001
      f+1     :    -0.000008
      f-1     :    -0.000008
      f+2     :    -0.000001
      f-2     :    -0.000001
      f+3     :     0.000000
      f-3     :     0.000002
      g0      :     0.000000  g :    -0.000000
      g+1     :    -0.000000
      g-1     :    -0.000000
      g+2     :    -0.000000
      g-2     :    -0.000000
      g+3     :     0.000000
      g-3     :    -0.000000
      g+4     :     0.000000
      g-4     :     0.000000
  4 H s       :     0.157742  s :     0.157742
      pz      :     0.016588  p :     0.015435
      px      :    -0.000576
      py      :    -0.000576
      dz2     :     0.000011  d :     0.000008
      dxz     :     0.000003
      dyz     :     0.000003
      dx2y2   :    -0.000005
      dxy     :    -0.000005


                      *****************************
                      * MAYER POPULATION ANALYSIS *
                      *****************************

  NA   - Mulliken gross atomic population
  ZA   - Total nuclear charge
  QA   - Mulliken gross atomic charge
  VA   - Mayer's total valence
  BVA  - Mayer's bonded valence
  FA   - Mayer's free valence

  ATOM       NA         ZA         QA         VA         BVA        FA
  0 Ag    18.4909    19.0000     0.5091     1.1749     1.1514     0.0235
  1 Ag    18.4912    19.0000     0.5088     1.1752     1.1517     0.0235
  2 Ag    18.4912    19.0000     0.5088     1.1752     1.1517     0.0235
  3 Ag    18.6075    19.0000     0.3925     1.0698     0.8323     0.2375
  4 H      0.9192     1.0000     0.0808     0.8728     0.8003     0.0726

  Mayer bond orders larger than 0.100000
B(  0-Ag,  1-Ag) :   0.3112 B(  0-Ag,  2-Ag) :   0.3112 B(  0-Ag,  3-Ag) :   0.2699 
B(  0-Ag,  4-H ) :   0.2591 B(  1-Ag,  2-Ag) :   0.3113 B(  1-Ag,  3-Ag) :   0.2699 
B(  1-Ag,  4-H ) :   0.2592 B(  2-Ag,  3-Ag) :   0.2699 B(  2-Ag,  4-H ) :   0.2592 


-------
TIMINGS
-------

Total SCF time: 0 days 0 hours 0 min 20 sec 

Total time                  ....      20.650 sec
Sum of individual times     ....      20.321 sec  ( 98.4%)

Fock matrix formation       ....      18.231 sec  ( 88.3%)
  XC integration            ....       0.907 sec  (  5.0% of F)
    Basis function eval.    ....       0.093 sec  ( 10.2% of XC)
    Density eval.           ....       0.130 sec  ( 14.3% of XC)
    XC-Functional eval.     ....       0.041 sec  (  4.5% of XC)
    XC-Potential eval.      ....       0.235 sec  ( 25.9% of XC)
Diagonalization             ....       0.259 sec  (  1.3%)
Density matrix formation    ....       0.028 sec  (  0.1%)
Population analysis         ....       0.019 sec  (  0.1%)
Initial guess               ....       1.265 sec  (  6.1%)
Orbital Transformation      ....       0.000 sec  (  0.0%)
Orbital Orthonormalization  ....       0.000 sec  (  0.0%)
DIIS solution               ....       0.088 sec  (  0.4%)
Grid generation             ....       0.430 sec  (  2.1%)

-------------------------   --------------------
FINAL SINGLE POINT ENERGY      -587.839134461786
-------------------------   --------------------


                            ***************************************
                            *     ORCA property calculations      *
                            ***************************************

                                    ---------------------
                                    Active property flags
                                    ---------------------
   (+) Dipole Moment


------------------------------------------------------------------------------
                       ORCA ELECTRIC PROPERTIES CALCULATION
------------------------------------------------------------------------------

Dipole Moment Calculation                       ... on
Quadrupole Moment Calculation                   ... off
Polarizability Calculation                      ... off
GBWName                                         ... Ag04C2_H_F.gbw
Electron density file                           ... Ag04C2_H_F.scfp
The origin for moment calculation is the CENTER OF MASS  = ( 0.000000, -0.000000  0.009647)

-------------
DIPOLE MOMENT
-------------
                                X             Y             Z
Electronic contribution:     -0.00000       0.00002       2.68970
Nuclear contribution   :      0.00000       0.00000      -2.67399
                        -----------------------------------------
Total Dipole Moment    :     -0.00000       0.00002       0.01571
                        -----------------------------------------
Magnitude (a.u.)       :      0.01571
Magnitude (Debye)      :      0.03994



--------------------
Rotational spectrum 
--------------------
 
Rotational constants in cm-1:     0.020237     0.018353     0.018353 
Rotational constants in MHz :   606.690796   550.208253   550.208173 

 Dipole components along the rotational axes: 
x,y,z [a.u.] :    -0.015711    -0.000000    -0.000016 
x,y,z [Debye]:    -0.039935    -0.000000    -0.000042 

 

Timings for individual modules:

Sum of individual times         ...       22.569 sec (=   0.376 min)
GTO integral calculation        ...        1.545 sec (=   0.026 min)   6.8 %
SCF iterations                  ...       21.023 sec (=   0.350 min)  93.2 %
                             ****ORCA TERMINATED NORMALLY****
TOTAL RUN TIME: 0 days 0 hours 0 minutes 23 seconds 32 msec
