
                                 *****************
                                 * O   R   C   A *
                                 *****************

           --- An Ab Initio, DFT and Semiempirical electronic structure package ---

                  #######################################################
                  #                        -***-                        #
                  #          Department of theory and spectroscopy      #
                  #               Directorship: Frank Neese             #
                  #        Max Planck Institute fuer Kohlenforschung    #
                  #                Kaiser Wilhelm Platz 1               #
                  #                 D-45470 Muelheim/Ruhr               #
                  #                      Germany                        #
                  #                                                     #
                  #                  All rights reserved                #
                  #                        -***-                        #
                  #######################################################


                         Program Version 4.2.0 -  RELEASE  -


 With contributions from (in alphabetic order):
   Daniel Aravena         : Magnetic Suceptibility
   Michael Atanasov       : Ab Initio Ligand Field Theory (pilot matlab implementation)
   Alexander A. Auer      : GIAO ZORA, VPT2
   Ute Becker             : Parallelization
   Giovanni Bistoni       : ED, misc. LED, open-shell LED, HFLED
   Martin Brehm           : Molecular dynamics
   Dmytro Bykov           : SCF Hessian
   Vijay G. Chilkuri      : MRCI spin determinant printing, contributions to CSF-ICE
   Dipayan Datta          : RHF DLPNO-CCSD density
   Achintya Kumar Dutta   : EOM-CC, STEOM-CC
   Dmitry Ganyushin       : Spin-Orbit,Spin-Spin,Magnetic field MRCI
   Miquel Garcia          : C-PCM Hessian, Gaussian charge scheme
   Yang Guo               : DLPNO-NEVPT2, CIM, IAO-localization
   Andreas Hansen         : Spin unrestricted coupled pair/coupled cluster methods
   Benjamin Helmich-Paris : CASSCF linear response (MC-RPA)
   Lee Huntington         : MR-EOM, pCC
   Robert Izsak           : Overlap fitted RIJCOSX, COSX-SCS-MP3, EOM
   Christian Kollmar      : KDIIS, OOCD, Brueckner-CCSD(T), CCSD density
   Simone Kossmann        : Meta GGA functionals, TD-DFT gradient, OOMP2, MP2 Hessian
   Martin Krupicka        : AUTO-CI
   Lucas Lang             : DCDCAS
   Dagmar Lenk            : GEPOL surface, SMD
   Dimitrios Liakos       : Extrapolation schemes; Compound Job, initial MDCI parallelization
   Dimitrios Manganas     : Further ROCIS development; embedding schemes
   Dimitrios Pantazis     : SARC Basis sets
   Taras Petrenko         : DFT Hessian,TD-DFT gradient, ASA, ECA, R-Raman, ABS, FL, XAS/XES, NRVS
   Peter Pinski           : DLPNO-MP2, DLPNO-MP2 Gradient
   Christoph Reimann      : Effective Core Potentials
   Marius Retegan         : Local ZFS, SOC
   Christoph Riplinger    : Optimizer, TS searches, QM/MM, DLPNO-CCSD(T), (RO)-DLPNO pert. Triples
   Tobias Risthaus        : Range-separated hybrids, TD-DFT gradient, RPA, STAB
   Michael Roemelt        : Original ROCIS implementation
   Masaaki Saitow         : Open-shell DLPNO-CCSD energy and density
   Barbara Sandhoefer     : DKH picture change effects
   Avijit Sen             : IP-ROCIS
   Kantharuban Sivalingam : CASSCF convergence, NEVPT2, FIC-MRCI
   Bernardo de Souza      : ESD, SOC TD-DFT
   Georgi Stoychev        : AutoAux, RI-MP2 NMR
   Willem Van den Heuvel  : Paramagnetic NMR
   Boris Wezisla          : Elementary symmetry handling
   Frank Wennmohs         : Technical directorship


 We gratefully acknowledge several colleagues who have allowed us to
 interface, adapt or use parts of their codes:
   Stefan Grimme, W. Hujo, H. Kruse,             : VdW corrections, initial TS optimization,
                  C. Bannwarth                     DFT functionals, gCP, sTDA/sTD-DF
   Ed Valeev, F. Pavosevic, A. Kumar             : LibInt (2-el integral package), F12 methods
   Garnet Chan, S. Sharma, J. Yang, R. Olivares  : DMRG
   Ulf Ekstrom                                   : XCFun DFT Library
   Mihaly Kallay                                 : mrcc  (arbitrary order and MRCC methods)
   Andreas Klamt, Michael Diedenhofen            : otool_cosmo (COSMO solvation model)
   Jiri Pittner, Ondrej Demel                    : Mk-CCSD
   Frank Weinhold                                : gennbo (NPA and NBO analysis)
   Christopher J. Cramer and Donald G. Truhlar   : smd solvation model
   Lars Goerigk                                  : TD-DFT with DH, B97 family of functionals
   V. Asgeirsson, H. Jonsson                     : NEB implementation
   FAccTs GmbH                                   : IRC, NEB, NEB-TS, Multilevel, MM, QM/MM, CI optimization
   S Lehtola, MJT Oliveira, MAL Marques          : LibXC Library


 Your calculation uses the libint2 library for the computation of 2-el integrals
 For citations please refer to: http://libint.valeyev.net

 Your ORCA version has been built with support for libXC version: 4.2.3
 For citations please refer to: https://tddft.org/programs/libxc/

 This ORCA versions uses:
   CBLAS   interface :  Fast vector & matrix operations
   LAPACKE interface :  Fast linear algebra routines
   SCALAPACK package :  Parallel linear algebra routines


Your calculation utilizes the DFT-NL dispersion correction.
Cite in your paper:
Vydrov, O. A.; Van Voorhis, T. J. Chem. Phys. 2010, 133, 244103
Hujo, W.; Grimme, S. J. Chem. Theory Comput. 2011, 7, 3866 
   

----- Orbital basis set information -----
Your calculation utilizes the basis: def2-TZVPPD
   F. Weigend and R. Ahlrichs, Phys. Chem. Chem. Phys. 7, 3297 (2005).
   D. Rappoport and F. Furche, J. Chem. Phys. 133 134105 (2010).

----- AuxJK basis set information -----
Your calculation utilizes the auxiliary basis: def2/JK
   H-Ba, Hf-Rn: F. Weigend, J. Comput. Chem. 29, 167 (2008).

cite the ECPs for Ag [Def2-ECP] as follows:
Ce-Yb(ecp-28): M. Dolg, H. Stoll, H.Preuss, J. Chem. Phys., 1989, 90, 1730-1734.
Y-Cd(ecp-28), Hf-Hg(ecp-46): D. Andrae,U. Haeussermann, M. Dolg, H. Stoll, H. Preuss, Theor. Chim. Acta, 1990, 77, 123-141.
In-Sb(ecp-28), Tl-Bi(ecp-46): B. Metz, H. Stoll, M. Dolg, J. Chem. Phys., 2000, 113, 2563-2569.
Te-Xe(ecp-28), Po-Rn(ecp-46): K. A. Peterson, D. Figgen, E. Goll, H. Stoll, M. Dolg, J. Chem. Phys., 2003, 119, 11113-11123.
Rb(ecp-28), Cs(ecp-46): T. Leininger, A. Nicklass, W. Kuechle, H. Stoll, M. Dolg, A. Bergner, Chem. Phys. Lett., 1996, 255, 274-280.
Sr(ecp-28), Ba(ecp-46): M. Kaupp, P. V. Schleyer, H. Stoll and H. Preuss, J. Chem. Phys., 1991, 94, 1360-1366.
La(ecp-46): M. Dolg, H. Stoll, A. Savin, H. Preuss, Theor. Chim. Acta, 1989, 75, 173-194.
Lu(ecp-28): X. Cao, M. Dolg, J. Chem. Phys., 2001, 115, 7348-7355.

ECP parameters for Ag [Def2-ECP] have been obtained from:
TURBOMOLE (7.0.2)

================================================================================
                                        WARNINGS
                       Please study these warnings very carefully!
================================================================================


INFO   : the flag for use of LIBINT has been found!

================================================================================
                                       INPUT FILE
================================================================================
NAME = Ag04C2_NH3_F.in
|  1> #
|  2> # Ag04C2_NH3_F wB97X-V/Def2-TZVPPD
|  3> #
|  4> ! wb97x-v def2-tzvppd def2/jk grid4 nofinalgrid
|  5> 
|  6> *xyz 2 1
|  7> Ag       0.000000    1.593354   -0.403942 
|  8> Ag       1.379885   -0.796677   -0.403942 
|  9> Ag      -1.379885   -0.796677   -0.403942 
| 10> Ag       0.000000    0.000000    1.894943 
| 11> N        0.000000    0.000000   -3.082630 
| 12> H        0.808649    0.466874   -3.509356 
| 13> H       -0.000000   -0.933748   -3.509356 
| 14> H       -0.808649    0.466874   -3.509356 
| 15> *
| 16> 
| 17> %maxcore 5000
| 18> 
| 19> %pal
| 20> nprocs = 24
| 21> end
| 22> 
| 23> 
| 24>                          ****END OF INPUT****
================================================================================

                       ****************************
                       * Single Point Calculation *
                       ****************************

---------------------------------
CARTESIAN COORDINATES (ANGSTROEM)
---------------------------------
  Ag     0.000000    1.593354   -0.403942
  Ag     1.379885   -0.796677   -0.403942
  Ag    -1.379885   -0.796677   -0.403942
  Ag     0.000000    0.000000    1.894943
  N      0.000000    0.000000   -3.082630
  H      0.808649    0.466874   -3.509356
  H     -0.000000   -0.933748   -3.509356
  H     -0.808649    0.466874   -3.509356

----------------------------
CARTESIAN COORDINATES (A.U.)
----------------------------
  NO LB      ZA    FRAG     MASS         X           Y           Z
   0 Ag   19.0000*   0   107.870    0.000000    3.011003   -0.763340
   1 Ag   19.0000*   0   107.870    2.607605   -1.505501   -0.763340
   2 Ag   19.0000*   0   107.870   -2.607605   -1.505501   -0.763340
   3 Ag   19.0000*   0   107.870    0.000000    0.000000    3.580923
   4 N     7.0000    0    14.007    0.000000    0.000000   -5.825326
   5 H     1.0000    0     1.008    1.528125    0.882264   -6.631722
   6 H     1.0000    0     1.008   -0.000000   -1.764528   -6.631722
   7 H     1.0000    0     1.008   -1.528125    0.882264   -6.631722
* core charge reduced due to ECP

--------------------------------
INTERNAL COORDINATES (ANGSTROEM)
--------------------------------
 Ag     0   0   0     0.000000000000     0.00000000     0.00000000
 Ag     1   0   0     2.759770061832     0.00000000     0.00000000
 Ag     2   1   0     2.759770000000    60.00000074     0.00000000
 Ag     2   1   3     2.797078672254    60.44025964   289.11372282
 N      2   1   3     3.116752517750    63.72169801    73.43683105
 H      5   2   1     1.026635093961    97.16631830    93.55927958
 H      5   2   1     1.026635478921    97.16630282   198.65679622
 H      5   2   1     1.026635093961   145.30586426   326.10806523

---------------------------
INTERNAL COORDINATES (A.U.)
---------------------------
 Ag     0   0   0     0.000000000000     0.00000000     0.00000000
 Ag     1   0   0     5.215209609458     0.00000000     0.00000000
 Ag     2   1   0     5.215209492612    60.00000074     0.00000000
 Ag     2   1   3     5.285712665592    60.44025964   289.11372282
 N      2   1   3     5.889808685756    63.72169801    73.43683105
 H      5   2   1     1.940059167059    97.16631830    93.55927958
 H      5   2   1     1.940059894528    97.16630282   198.65679622
 H      5   2   1     1.940059167059   145.30586426   326.10806523

---------------------
BASIS SET INFORMATION
---------------------
There are 3 groups of distinct atoms

 Group   1 Type Ag  : 7s7p6d2f1g contracted to 6s4p3d2f1g pattern {211111/4111/411/11/1}
 Group   2 Type N   : 12s6p3d1f contracted to 6s3p3d1f pattern {621111/411/111/1}
 Group   3 Type H   : 5s3p1d contracted to 3s3p1d pattern {311/111/1}

Atom   0Ag   basis set group =>   1
Atom   1Ag   basis set group =>   1
Atom   2Ag   basis set group =>   1
Atom   3Ag   basis set group =>   1
Atom   4N    basis set group =>   2
Atom   5H    basis set group =>   3
Atom   6H    basis set group =>   3
Atom   7H    basis set group =>   3
----------------------------------
AUXILIARY/JK BASIS SET INFORMATION
----------------------------------
There are 3 groups of distinct atoms

 Group   1 Type Ag  : 13s12p10d9f6g3h2i contracted to 11s10p9d8f6g3h2i pattern {31111111111/3111111111/211111111/21111111/111111/111/11}
 Group   2 Type N   : 14s10p6d2f1g contracted to 10s8p4d2f1g pattern {5111111111/31111111/3111/11/1}
 Group   3 Type H   : 4s2p2d contracted to 2s2p2d pattern {31/11/11}

Atom   0Ag   basis set group =>   1
Atom   1Ag   basis set group =>   1
Atom   2Ag   basis set group =>   1
Atom   3Ag   basis set group =>   1
Atom   4N    basis set group =>   2
Atom   5H    basis set group =>   3
Atom   6H    basis set group =>   3
Atom   7H    basis set group =>   3
-------------------------
ECP PARAMETER INFORMATION
-------------------------

 Group 1, Type Ag ECP Def2-ECP (replacing 28 core electrons, lmax=3)

Atom   0Ag   ECP group =>   1
Atom   1Ag   ECP group =>   1
Atom   2Ag   ECP group =>   1
Atom   3Ag   ECP group =>   1



           ************************************************************
           *        Program running with 24 parallel MPI-processes    *
           *              working on a common directory               *
           ************************************************************
------------------------------------------------------------------------------
                           ORCA GTO INTEGRAL CALCULATION
------------------------------------------------------------------------------

                         BASIS SET STATISTICS AND STARTUP INFO

 # of primitive gaussian shells          ...  141
 # of primitive gaussian functions       ...  433
 # of contracted shells                  ...   98
 # of contracted basis functions         ...  312
 Highest angular momentum                ...    4
 Maximum contraction depth               ...    6
 Integral package used                   ... LIBINT
 Integral threshhold            Thresh   ...  1.000e-10
 Primitive cut-off              TCut     ...  1.000e-11


------------------------------ INTEGRAL EVALUATION ----------------------------


 * One electron integrals 

   ECP integrals                         ... done
 Pre-screening matrix                    ... done
 Shell pair data                         ... done (   0.001 sec)



           ************************************************************
           *        Program running with 24 parallel MPI-processes    *
           *              working on a common directory               *
           ************************************************************
-------------------------------------------------------------------------------
                                 ORCA SCF
-------------------------------------------------------------------------------

------------
SCF SETTINGS
------------
Hamiltonian:
 Density Functional     Method          .... DFT(GTOs)
 Exchange Functional    Exchange        .... WB97X-V
 Correlation Functional Correlation     .... WB97X-V
 Gradients option       PostSCFGGA      .... off
 Hybrid DFT is turned on
   Fraction HF Exchange ScalHFX         ....  0.167000
   Scaling of DF-GGA-X  ScalDFX         ....  0.000000
   Scaling of DF-GGA-C  ScalDFC         ....  1.000000
   Scaling of DF-LDA-C  ScalLDAC        ....  1.000000
   Perturbative correction              ....  0.000000
   Density functional embedding theory  .... OFF
 Long-range corrected/Screened/Range-Separated Hybrid DFT is turned on
   Amount of maximum screened exact exchange              ....  0.833000
   Range separation parameter mu (erf(mu*r12)/r12)        ....  0.300000
   NL short-range parameter             ....  6.000000
   NL long-range parameter              ....  0.010000


General Settings:
 Integral files         IntName         .... Ag04C2_NH3_F
 Hartree-Fock type      HFTyp           .... RHF
 Total Charge           Charge          ....    2
 Multiplicity           Mult            ....    1
 Number of Electrons    NEL             ....   84
 Basis Dimension        Dim             ....  312
 Nuclear Repulsion      ENuc            ....    537.0150886910 Eh

Convergence Acceleration:
 DIIS                   CNVDIIS         .... on
   Start iteration      DIISMaxIt       ....    12
   Startup error        DIISStart       ....  0.200000
   # of expansion vecs  DIISMaxEq       ....     5
   Bias factor          DIISBfac        ....   1.050
   Max. coefficient     DIISMaxC        ....  10.000
 Newton-Raphson         CNVNR           .... off
 SOSCF                  CNVSOSCF        .... off
 Level Shifting         CNVShift        .... on
   Level shift para.    LevelShift      ....    0.2500
   Turn off err/grad.   ShiftErr        ....    0.0010
 Zerner damping         CNVZerner       .... off
 Static damping         CNVDamp         .... on
   Fraction old density DampFac         ....    0.7000
   Max. Damping (<1)    DampMax         ....    0.9800
   Min. Damping (>=0)   DampMin         ....    0.0000
   Turn off err/grad.   DampErr         ....    0.1000
 Fernandez-Rico         CNVRico         .... off

SCF Procedure:
 Maximum # iterations   MaxIter         ....   125
 SCF integral mode      SCFMode         .... Direct
   Integral package                     .... LIBINT
 Reset frequency        DirectResetFreq ....    20
 Integral Threshold     Thresh          ....  1.000e-10 Eh
 Primitive CutOff       TCut            ....  1.000e-11 Eh

Convergence Tolerance:
 Convergence Check Mode ConvCheckMode   .... Total+1el-Energy
 Convergence forced     ConvForced      .... 0
 Energy Change          TolE            ....  1.000e-06 Eh
 1-El. energy change                    ....  1.000e-03 Eh
 DIIS Error             TolErr          ....  1.000e-06


Diagonalization of the overlap matrix:
Smallest eigenvalue                        ... 2.571e-04
Time for diagonalization                   ...    0.016 sec
Threshold for overlap eigenvalues          ... 1.000e-08
Number of eigenvalues below threshold      ... 0
Time for construction of square roots      ...    0.011 sec
Total time needed                          ...    0.028 sec

-------------------
DFT GRID GENERATION
-------------------

General Integration Accuracy     IntAcc      ...  4.670
Radial Grid Type                 RadialGrid  ... Gauss-Chebyshev
Angular Grid (max. acc.)         AngularGrid ... Lebedev-302
Angular grid pruning method      GridPruning ... 3 (G Style)
Weight generation scheme         WeightScheme... Becke
Basis function cutoff            BFCut       ...    1.0000e-10
Integration weight cutoff        WCut        ...    1.0000e-14
Grids for H and He will be reduced by one unit

# of grid points (after initial pruning)     ...  59026 (   0.0 sec)
# of grid points (after weights+screening)   ...  56864 (   0.0 sec)
nearest neighbour list constructed           ...    0.0 sec
Grid point re-assignment to atoms done       ...    0.0 sec
Grid point division into batches done        ...    0.4 sec
Reduced shell lists constructed in    0.4 sec

Total number of grid points                  ...    56864
Total number of batches                      ...      892
Average number of points per batch           ...       63
Average number of grid points per atom       ...     7108
Average number of shells per batch           ...    26.18 (26.71%)
Average number of basis functions per batch  ...    69.21 (22.18%)
Average number of large shells per batch     ...    18.05 (68.95%)
Average number of large basis fcns per batch ...    45.79 (66.17%)
Maximum spatial batch extension              ...  24.21, 20.12, 27.87 au
Average spatial batch extension              ...   0.35,  0.32,  0.37 au

Time for grid setup =    0.428 sec

------------------------------
INITIAL GUESS: MODEL POTENTIAL
------------------------------
Loading Hartree-Fock densities                     ... done
  calling /sw/apps/orca/orca_4_2_0_linux_x86-64_openmpi314/orca Ag04C2_NH3_F_atom47.inp > Ag04C2_NH3_F_atom47.out in order to generate an atomic fitting density for atom 0 (Ag with ECP) on-the-fly... 
    atom 0 (Ag), assumed electronic state with S=2: 1s2 2s2 2p6 3s2 3p6 4s2 3d10 4p6 5s2 4d9           ... done
Calculating cut-offs                               ... done
Setting up the integral package                    ... done
Initializing the effective Hamiltonian             ... done
Starting the Coulomb interaction                   ... done (   0.0 sec)
Reading the grid                                   ... done
Mapping shells                                     ... done
Starting the XC term evaluation                    ... done (   0.0 sec)
  promolecular density results
     # of electrons  =    198.000391209
     EX              =   -455.071945662
     EC              =    -13.437096875
     EX+EC           =   -468.509042537
Transforming the Hamiltonian                       ... done (   0.0 sec)
Diagonalizing the Hamiltonian                      ... done (   0.0 sec)
Back transforming the eigenvectors                 ... done (   0.0 sec)
Now organizing SCF variables                       ... done
                      ------------------
                      INITIAL GUESS DONE (   1.8 sec)
                      ------------------
--------------
SCF ITERATIONS
--------------
ITER       Energy         Delta-E        Max-DP      RMS-DP      [F,P]     Damp
               ***  Starting incremental Fock matrix formation  ***
  0   -643.9129920081   0.000000000000 0.06407643  0.00125945  0.3673136 0.7000
  1   -644.0291160117  -0.116124003529 0.05174787  0.00105416  0.2751422 0.7000
  2   -644.0896468542  -0.060530842543 0.04054984  0.00078605  0.2030490 0.7000
                               ***Turning on DIIS***
  3   -644.1280051217  -0.038358267530 0.03056310  0.00058449  0.1467115 0.7000
  4   -644.1550814222  -0.027076300457 0.02501466  0.00047525  0.1043695 0.7000
  5   -644.1745222306  -0.019440808379 0.06749908  0.00123898  0.0722195 0.0000
  6   -644.2229196957  -0.048397465100 0.00601752  0.00011436  0.0040265 0.0000
  7   -644.2232431459  -0.000323450178 0.00241003  0.00006453  0.0024835 0.0000
  8   -644.2233497252  -0.000106579291 0.00125931  0.00003475  0.0013375 0.0000
  9   -644.2233926100  -0.000042884884 0.00078802  0.00001899  0.0005821 0.0000
 10   -644.2233997624  -0.000007152381 0.00019638  0.00000338  0.0000500 0.0000
                 **** Energy Check signals convergence ****

               *****************************************************
               *                     SUCCESS                       *
               *           SCF CONVERGED AFTER  11 CYCLES          *
               *****************************************************


Setting up the DFT-NL grid :

General Integration Accuracy     IntAcc      ...  4.340
Radial Grid Type                 RadialGrid  ... Gauss-Chebyshev
Angular Grid (max. acc.)         AngularGrid ... Lebedev-110
Angular grid pruning method      GridPruning ... 3 (G Style)
Weight generation scheme         WeightScheme... Becke
Basis function cutoff            BFCut       ...    1.0000e-10
Integration weight cutoff        WCut        ...    1.0000e-14
Grids for H and He will be reduced by one unit

# of grid points (after initial pruning)     ...  17116 (   0.0 sec)
# of grid points (after weights+screening)   ...  16606 (   0.0 sec)
nearest neighbour list constructed           ...    0.0 sec
Grid point re-assignment to atoms done       ...    0.0 sec
Grid point division into batches done        ...    0.0 sec
Reduced shell lists constructed in    0.0 sec

Total number of grid points                  ...    16606
Total number of batches                      ...      264
Average number of points per batch           ...       62
Average number of grid points per atom       ...     2076
Average number of shells per batch           ...    33.00 (33.67%)
Average number of basis functions per batch  ...    92.83 (29.75%)
Average number of large shells per batch     ...    23.17 (70.20%)
Average number of large basis fcns per batch ...    62.00 (66.79%)
Maximum spatial batch extension              ...  25.72, 20.50, 24.85 au
Average spatial batch extension              ...   0.50,  0.41,  0.42 au

Final grid set up in    0.0 sec

-------------------------------------------------------------------------------
                         DFT-NL dispersion correction                          
-------------------------------------------------------------------------------

SC Energy -644.223399900 
NL    Energy 0.320083619 
SC+NL Energy -643.903316281 
NL done in    0.1 sec
-------------------------------------------------------------------------------

----------------
TOTAL SCF ENERGY
----------------

Total Energy       :         -643.90331628 Eh          -17521.50001 eV

Components:
Nuclear Repulsion  :          537.01508869 Eh           14612.92347 eV
Electronic Energy  :        -1180.91840497 Eh          -32134.42348 eV
One Electron Energy:        -2165.12017438 Eh          -58915.91517 eV
Two Electron Energy:          984.20176940 Eh           26781.49169 eV

Virial components:
Potential Energy   :         -925.67140938 Eh          -25188.79962 eV
Kinetic Energy     :          281.76809310 Eh            7667.29961 eV
Virial Ratio       :            3.28522438


DFT components:
N(Alpha)           :       41.999986144006 electrons
N(Beta)            :       41.999986144006 electrons
N(Total)           :       83.999972288012 electrons
E(X)               :      -39.403248529647 Eh       
E(C)               :       -3.946617054891 Eh       
NL Energy, E(C,NL) :        0.320083619351 Eh       
E(XC)              :      -43.029781965186 Eh       
DFET-embed. en.    :        0.000000000000 Eh       

---------------
SCF CONVERGENCE
---------------

  Last Energy change         ...   -1.3760e-07  Tolerance :   1.0000e-06
  Last MAX-Density change    ...    4.3518e-05  Tolerance :   1.0000e-05
  Last RMS-Density change    ...    7.4907e-07  Tolerance :   1.0000e-06
  Last DIIS Error            ...    1.7817e-05  Tolerance :   1.0000e-06

             **** THE GBW FILE WAS UPDATED (Ag04C2_NH3_F.gbw) ****
             **** DENSITY FILE WAS UPDATED (Ag04C2_NH3_F.scfp) ****
             **** ENERGY FILE WAS UPDATED (Ag04C2_NH3_F.en.tmp) ****
             **** THE GBW FILE WAS UPDATED (Ag04C2_NH3_F.gbw) ****
             **** DENSITY FILE WAS UPDATED (Ag04C2_NH3_F.scfp) ****
----------------
ORBITAL ENERGIES
----------------

  NO   OCC          E(Eh)            E(eV) 
   0   2.0000     -14.705079      -400.1456 
   1   2.0000      -4.186261      -113.9140 
   2   2.0000      -4.185984      -113.9064 
   3   2.0000      -4.185980      -113.9063 
   4   2.0000      -4.179828      -113.7389 
   5   2.0000      -2.788135       -75.8690 
   6   2.0000      -2.786474       -75.8238 
   7   2.0000      -2.786471       -75.8237 
   8   2.0000      -2.784546       -75.7714 
   9   2.0000      -2.784542       -75.7712 
  10   2.0000      -2.784493       -75.7699 
  11   2.0000      -2.784414       -75.7677 
  12   2.0000      -2.783353       -75.7389 
  13   2.0000      -2.783350       -75.7388 
  14   2.0000      -2.778803       -75.6151 
  15   2.0000      -2.777967       -75.5923 
  16   2.0000      -2.777966       -75.5923 
  17   2.0000      -1.288293       -35.0562 
  18   2.0000      -0.871069       -23.7030 
  19   2.0000      -0.871067       -23.7029 
  20   2.0000      -0.838851       -22.8263 
  21   2.0000      -0.818163       -22.2634 
  22   2.0000      -0.814333       -22.1591 
  23   2.0000      -0.814323       -22.1589 
  24   2.0000      -0.806138       -21.9361 
  25   2.0000      -0.806138       -21.9361 
  26   2.0000      -0.796270       -21.6676 
  27   2.0000      -0.789966       -21.4961 
  28   2.0000      -0.789959       -21.4959 
  29   2.0000      -0.771124       -20.9833 
  30   2.0000      -0.770143       -20.9566 
  31   2.0000      -0.770139       -20.9565 
  32   2.0000      -0.767558       -20.8863 
  33   2.0000      -0.767547       -20.8860 
  34   2.0000      -0.766040       -20.8450 
  35   2.0000      -0.766039       -20.8450 
  36   2.0000      -0.765673       -20.8350 
  37   2.0000      -0.747382       -20.3373 
  38   2.0000      -0.745510       -20.2864 
  39   2.0000      -0.745499       -20.2861 
  40   2.0000      -0.726070       -19.7574 
  41   2.0000      -0.649576       -17.6759 
  42   0.0000      -0.339372        -9.2348 
  43   0.0000      -0.339369        -9.2347 
  44   0.0000      -0.323194        -8.7946 
  45   0.0000      -0.239102        -6.5063 
  46   0.0000      -0.222244        -6.0476 
  47   0.0000      -0.222244        -6.0476 
  48   0.0000      -0.208555        -5.6751 
  49   0.0000      -0.208555        -5.6751 
  50   0.0000      -0.203568        -5.5394 
  51   0.0000      -0.144790        -3.9399 
  52   0.0000      -0.124481        -3.3873 
  53   0.0000      -0.124481        -3.3873 
  54   0.0000      -0.113409        -3.0860 
  55   0.0000      -0.112799        -3.0694 
  56   0.0000      -0.112798        -3.0694 
  57   0.0000      -0.099360        -2.7037 
  58   0.0000      -0.086006        -2.3403 
  59   0.0000      -0.086006        -2.3403 
  60   0.0000      -0.067975        -1.8497 
  61   0.0000      -0.051928        -1.4130 
  62   0.0000      -0.033900        -0.9225 
  63   0.0000      -0.030059        -0.8179 
  64   0.0000      -0.030058        -0.8179 
  65   0.0000      -0.025188        -0.6854 
  66   0.0000      -0.025187        -0.6854 
  67   0.0000      -0.013207        -0.3594 
  68   0.0000      -0.009587        -0.2609 
  69   0.0000      -0.009585        -0.2608 
  70   0.0000       0.009156         0.2492 
  71   0.0000       0.012081         0.3288 
  72   0.0000       0.012085         0.3288 
  73   0.0000       0.052096         1.4176 
  74   0.0000       0.052098         1.4177 
  75   0.0000       0.081105         2.2070 
  76   0.0000       0.096212         2.6181 
  77   0.0000       0.097408         2.6506 
  78   0.0000       0.097409         2.6506 
  79   0.0000       0.115601         3.1457 
  80   0.0000       0.116196         3.1619 
  81   0.0000       0.116197         3.1619 
  82   0.0000       0.119501         3.2518 
  83   0.0000       0.151648         4.1265 
  84   0.0000       0.151651         4.1266 
  85   0.0000       0.183998         5.0068 
  86   0.0000       0.184003         5.0070 
  87   0.0000       0.187321         5.0973 
  88   0.0000       0.235614         6.4114 
  89   0.0000       0.246515         6.7080 
  90   0.0000       0.246517         6.7081 
  91   0.0000       0.278677         7.5832 
  92   0.0000       0.278689         7.5835 
  93   0.0000       0.292032         7.9466 
  94   0.0000       0.304982         8.2990 
  95   0.0000       0.304982         8.2990 
  96   0.0000       0.328963         8.9515 
  97   0.0000       0.338137         9.2012 
  98   0.0000       0.387757        10.5514 
  99   0.0000       0.387760        10.5515 
 100   0.0000       0.392024        10.6675 
 101   0.0000       0.392024        10.6675 
 102   0.0000       0.421568        11.4715 
 103   0.0000       0.421576        11.4717 
 104   0.0000       0.426329        11.6010 
 105   0.0000       0.440666        11.9911 
 106   0.0000       0.474632        12.9154 
 107   0.0000       0.474647        12.9158 
 108   0.0000       0.489586        13.3223 
 109   0.0000       0.489599        13.3227 
 110   0.0000       0.506956        13.7950 
 111   0.0000       0.517278        14.0758 
 112   0.0000       0.553543        15.0627 
 113   0.0000       0.553545        15.0627 
 114   0.0000       0.604733        16.4556 
 115   0.0000       0.637143        17.3375 
 116   0.0000       0.637152        17.3378 
 117   0.0000       0.667771        18.1710 
 118   0.0000       0.903112        24.5749 
 119   0.0000       0.912318        24.8254 
 120   0.0000       0.912355        24.8264 
 121   0.0000       0.928476        25.2651 
 122   0.0000       1.037581        28.2340 
 123   0.0000       1.037583        28.2341 
 124   0.0000       1.056982        28.7619 
 125   0.0000       1.056985        28.7620 
 126   0.0000       1.255171        34.1549 
 127   0.0000       1.278491        34.7895 
 128   0.0000       1.278502        34.7898 
 129   0.0000       1.318349        35.8741 
 130   0.0000       1.321017        35.9467 
 131   0.0000       1.321041        35.9473 
 132   0.0000       1.325313        36.0636 
 133   0.0000       1.330875        36.2149 
 134   0.0000       1.330875        36.2149 
 135   0.0000       1.335811        36.3493 
 136   0.0000       1.347037        36.6547 
 137   0.0000       1.355760        36.8921 
 138   0.0000       1.355770        36.8924 
 139   0.0000       1.364909        37.1411 
 140   0.0000       1.364917        37.1413 
 141   0.0000       1.368225        37.2313 
 142   0.0000       1.373594        37.3774 
 143   0.0000       1.378577        37.5130 
 144   0.0000       1.379648        37.5421 
 145   0.0000       1.379658        37.5424 
 146   0.0000       1.401024        38.1238 
 147   0.0000       1.402323        38.1591 
 148   0.0000       1.402326        38.1592 
 149   0.0000       1.406256        38.2662 
 150   0.0000       1.406262        38.2663 
 151   0.0000       1.406434        38.2710 
 152   0.0000       1.427323        38.8394 
 153   0.0000       1.427327        38.8395 
 154   0.0000       1.434695        39.0400 
 155   0.0000       1.445080        39.3226 
 156   0.0000       1.445090        39.3229 
 157   0.0000       1.463528        39.8246 
 158   0.0000       1.468321        39.9550 
 159   0.0000       1.468323        39.9551 
 160   0.0000       1.471649        40.0456 
 161   0.0000       1.549509        42.1643 
 162   0.0000       1.549517        42.1645 
 163   0.0000       1.558791        42.4169 
 164   0.0000       1.584443        43.1149 
 165   0.0000       1.584444        43.1149 
 166   0.0000       1.659209        45.1494 
 167   0.0000       1.666746        45.3545 
 168   0.0000       1.666756        45.3547 
 169   0.0000       1.676254        45.6132 
 170   0.0000       1.741788        47.3965 
 171   0.0000       1.741819        47.3973 
 172   0.0000       1.862933        50.6930 
 173   0.0000       1.867704        50.8228 
 174   0.0000       1.867729        50.8235 
 175   0.0000       1.891296        51.4648 
 176   0.0000       1.913208        52.0610 
 177   0.0000       1.913250        52.0622 
 178   0.0000       1.937966        52.7347 
 179   0.0000       1.937967        52.7348 
 180   0.0000       1.962315        53.3973 
 181   0.0000       1.972523        53.6751 
 182   0.0000       1.972592        53.6770 
 183   0.0000       1.974680        53.7338 
 184   0.0000       1.974744        53.7355 
 185   0.0000       1.985996        54.0417 
 186   0.0000       1.988042        54.0974 
 187   0.0000       2.002701        54.4963 
 188   0.0000       2.002732        54.4971 
 189   0.0000       2.112732        57.4904 
 190   0.0000       2.116079        57.5814 
 191   0.0000       2.116095        57.5819 
 192   0.0000       2.255275        61.3692 
 193   0.0000       2.416415        65.7540 
 194   0.0000       2.416462        65.7553 
 195   0.0000       2.440226        66.4019 
 196   0.0000       2.472822        67.2889 
 197   0.0000       2.575617        70.0861 
 198   0.0000       2.606678        70.9313 
 199   0.0000       2.606692        70.9317 
 200   0.0000       2.625514        71.4439 
 201   0.0000       2.779691        75.6392 
 202   0.0000       2.779706        75.6396 
 203   0.0000       2.891766        78.6889 
 204   0.0000       3.048080        82.9425 
 205   0.0000       3.106237        84.5250 
 206   0.0000       3.106239        84.5251 
 207   0.0000       3.186380        86.7058 
 208   0.0000       3.186383        86.7059 
 209   0.0000       3.307370        89.9981 
 210   0.0000       3.311241        90.1035 
 211   0.0000       3.311267        90.1042 
 212   0.0000       3.678091       100.0859 
 213   0.0000       3.717692       101.1635 
 214   0.0000       3.717700       101.1638 
 215   0.0000       3.798781       103.3701 
 216   0.0000       3.798854       103.3721 
 217   0.0000       3.824714       104.0757 
 218   0.0000       3.975098       108.1679 
 219   0.0000       3.975152       108.1694 
 220   0.0000       4.194646       114.1421 
 221   0.0000       4.274485       116.3146 
 222   0.0000       4.274507       116.3152 
 223   0.0000       4.386570       119.3646 
 224   0.0000       4.545637       123.6931 
 225   0.0000       4.555197       123.9532 
 226   0.0000       4.555262       123.9550 
 227   0.0000       4.575194       124.4974 
 228   0.0000       4.576818       124.5415 
 229   0.0000       4.576853       124.5425 
 230   0.0000       4.590756       124.9208 
 231   0.0000       4.596846       125.0865 
 232   0.0000       4.602442       125.2388 
 233   0.0000       4.602473       125.2397 
 234   0.0000       4.602729       125.2466 
 235   0.0000       4.608902       125.4146 
 236   0.0000       4.621610       125.7604 
 237   0.0000       4.621660       125.7618 
 238   0.0000       4.637130       126.1827 
 239   0.0000       4.637188       126.1843 
 240   0.0000       4.638865       126.2299 
 241   0.0000       4.649714       126.5252 
 242   0.0000       4.652576       126.6030 
 243   0.0000       4.652585       126.6033 
 244   0.0000       4.668081       127.0249 
 245   0.0000       4.668122       127.0261 
 246   0.0000       4.711720       128.2124 
 247   0.0000       4.742921       129.0615 
 248   0.0000       4.742922       129.0615 
 249   0.0000       4.791955       130.3957 
 250   0.0000       4.792051       130.3983 
 251   0.0000       4.794835       130.4741 
 252   0.0000       4.796610       130.5224 
 253   0.0000       4.815409       131.0339 
 254   0.0000       4.815442       131.0348 
 255   0.0000       5.017519       136.5336 
 256   0.0000       5.017599       136.5358 
 257   0.0000       5.071063       137.9906 
 258   0.0000       5.295827       144.1068 
 259   0.0000       5.325352       144.9102 
 260   0.0000       5.325749       144.9210 
 261   0.0000       5.325955       144.9266 
 262   0.0000       5.326076       144.9299 
 263   0.0000       5.326363       144.9377 
 264   0.0000       5.326693       144.9467 
 265   0.0000       5.326722       144.9475 
 266   0.0000       5.326738       144.9479 
 267   0.0000       5.326980       144.9545 
 268   0.0000       5.327163       144.9595 
 269   0.0000       5.327294       144.9631 
 270   0.0000       5.327510       144.9689 
 271   0.0000       5.327884       144.9791 
 272   0.0000       5.328370       144.9923 
 273   0.0000       5.328470       144.9950 
 274   0.0000       5.328959       145.0083 
 275   0.0000       5.329119       145.0127 
 276   0.0000       5.329345       145.0188 
 277   0.0000       5.329733       145.0294 
 278   0.0000       5.329759       145.0301 
 279   0.0000       5.331302       145.0721 
 280   0.0000       5.331646       145.0815 
 281   0.0000       5.331769       145.0848 
 282   0.0000       5.333731       145.1382 
 283   0.0000       5.334079       145.1477 
 284   0.0000       5.334280       145.1531 
 285   0.0000       5.335158       145.1770 
 286   0.0000       5.335165       145.1772 
 287   0.0000       5.335471       145.1855 
 288   0.0000       5.335697       145.1917 
 289   0.0000       5.336050       145.2013 
 290   0.0000       5.336583       145.2158 
 291   0.0000       5.341262       145.3431 
 292   0.0000       5.349252       145.5605 
 293   0.0000       5.349553       145.5687 
 294   0.0000       5.349595       145.5699 
 295   0.0000       5.593856       152.2166 
 296   0.0000       5.693079       154.9166 
 297   0.0000       5.693209       154.9201 
 298   0.0000       5.803530       157.9221 
 299   0.0000       5.803564       157.9230 
 300   0.0000       6.244755       169.9284 
 301   0.0000       6.500537       176.8886 
 302   0.0000       6.500549       176.8889 
 303   0.0000      32.505030       884.5068 
 304   0.0000      33.280309       905.6033 
 305   0.0000      33.584616       913.8839 
 306   0.0000      33.652700       915.7365 
 307   0.0000      33.652700       915.7365 
 308   0.0000     110.601434      3009.6180 
 309   0.0000     110.702689      3012.3733 
 310   0.0000     110.721466      3012.8843 
 311   0.0000     110.721468      3012.8843 

                    ********************************
                    * MULLIKEN POPULATION ANALYSIS *
                    ********************************

-----------------------
MULLIKEN ATOMIC CHARGES
-----------------------
   0 Ag:    0.467145
   1 Ag:    0.466992
   2 Ag:    0.467002
   3 Ag:    0.455801
   4 N :   -0.415226
   5 H :    0.186114
   6 H :    0.186058
   7 H :    0.186115
Sum of atomic charges:    2.0000000

--------------------------------
MULLIKEN REDUCED ORBITAL CHARGES
--------------------------------
  0 Ags       :     2.450280  s :     2.450280
      pz      :     2.055709  p :     6.156820
      px      :     2.012202
      py      :     2.088909
      dz2     :     1.977260  d :     9.924268
      dxz     :     1.996380
      dyz     :     1.992955
      dx2y2   :     1.991643
      dxy     :     1.966030
      f0      :     0.000152  f :     0.001471
      f+1     :     0.000103
      f-1     :     0.000351
      f+2     :     0.000157
      f-2     :     0.000160
      f+3     :     0.000340
      f-3     :     0.000208
      g0      :     0.000001  g :     0.000016
      g+1     :     0.000001
      g-1     :     0.000003
      g+2     :     0.000002
      g-2     :     0.000002
      g+3     :     0.000001
      g-3     :     0.000001
      g+4     :     0.000002
      g-4     :     0.000003
  1 Ags       :     2.450355  s :     2.450355
      pz      :     2.055734  p :     6.156880
      px      :     2.069750
      py      :     2.031396
      dz2     :     1.977260  d :     9.924286
      dxz     :     1.993818
      dyz     :     1.995525
      dx2y2   :     1.972442
      dxy     :     1.985241
      f0      :     0.000152  f :     0.001472
      f+1     :     0.000289
      f-1     :     0.000165
      f+2     :     0.000159
      f-2     :     0.000158
      f+3     :     0.000340
      f-3     :     0.000208
      g0      :     0.000001  g :     0.000016
      g+1     :     0.000002
      g-1     :     0.000001
      g+2     :     0.000002
      g-2     :     0.000002
      g+3     :     0.000001
      g-3     :     0.000001
      g+4     :     0.000003
      g-4     :     0.000002
  2 Ags       :     2.450348  s :     2.450348
      pz      :     2.055734  p :     6.156877
      px      :     2.069748
      py      :     2.031395
      dz2     :     1.977260  d :     9.924286
      dxz     :     1.993818
      dyz     :     1.995525
      dx2y2   :     1.972442
      dxy     :     1.985241
      f0      :     0.000152  f :     0.001472
      f+1     :     0.000289
      f-1     :     0.000165
      f+2     :     0.000159
      f-2     :     0.000158
      f+3     :     0.000340
      f-3     :     0.000208
      g0      :     0.000001  g :     0.000016
      g+1     :     0.000002
      g-1     :     0.000001
      g+2     :     0.000002
      g-2     :     0.000002
      g+3     :     0.000001
      g-3     :     0.000001
      g+4     :     0.000003
      g-4     :     0.000002
  3 Ags       :     2.506215  s :     2.506215
      pz      :     2.104605  p :     6.125302
      px      :     2.010348
      py      :     2.010349
      dz2     :     1.989866  d :     9.911454
      dxz     :     1.966945
      dyz     :     1.966958
      dx2y2   :     1.993843
      dxy     :     1.993842
      f0      :     0.000200  f :     0.001215
      f+1     :     0.000275
      f-1     :     0.000275
      f+2     :     0.000196
      f-2     :     0.000196
      f+3     :     0.000031
      f-3     :     0.000042
      g0      :     0.000001  g :     0.000013
      g+1     :     0.000002
      g-1     :     0.000002
      g+2     :     0.000002
      g-2     :     0.000002
      g+3     :     0.000001
      g-3     :     0.000001
      g+4     :     0.000000
      g-4     :     0.000000
  4 N s       :     3.444935  s :     3.444935
      pz      :     1.581388  p :     3.967989
      px      :     1.193365
      py      :     1.193236
      dz2     :    -0.009556  d :     0.002095
      dxz     :     0.002206
      dyz     :     0.002202
      dx2y2   :     0.003619
      dxy     :     0.003625
      f0      :     0.000226  f :     0.000207
      f+1     :     0.000029
      f-1     :     0.000029
      f+2     :    -0.000065
      f-2     :    -0.000065
      f+3     :     0.000000
      f-3     :     0.000053
  5 H s       :     0.730237  s :     0.730237
      pz      :     0.034907  p :     0.079133
      px      :     0.024883
      py      :     0.019343
      dz2     :     0.000888  d :     0.004517
      dxz     :     0.001121
      dyz     :     0.000462
      dx2y2   :     0.001072
      dxy     :     0.000974
  6 H s       :     0.730339  s :     0.730339
      pz      :     0.034859  p :     0.079085
      px      :     0.016585
      py      :     0.027640
      dz2     :     0.000888  d :     0.004518
      dxz     :     0.000132
      dyz     :     0.001450
      dx2y2   :     0.000925
      dxy     :     0.001122
  7 H s       :     0.730235  s :     0.730235
      pz      :     0.034907  p :     0.079133
      px      :     0.024883
      py      :     0.019343
      dz2     :     0.000888  d :     0.004517
      dxz     :     0.001121
      dyz     :     0.000462
      dx2y2   :     0.001072
      dxy     :     0.000974


                     *******************************
                     * LOEWDIN POPULATION ANALYSIS *
                     *******************************

----------------------
LOEWDIN ATOMIC CHARGES
----------------------
   0 Ag:    0.483551
   1 Ag:    0.483525
   2 Ag:    0.483525
   3 Ag:    0.471703
   4 N :    0.400548
   5 H :   -0.107617
   6 H :   -0.107618
   7 H :   -0.107617

-------------------------------
LOEWDIN REDUCED ORBITAL CHARGES
-------------------------------
  0 Ags       :     2.316240  s :     2.316240
      pz      :     2.087763  p :     6.257426
      px      :     2.022967
      py      :     2.146697
      dz2     :     1.980397  d :     9.940489
      dxz     :     1.992731
      dyz     :     1.998904
      dx2y2   :     1.993426
      dxy     :     1.975031
      f0      :     0.000202  f :     0.002271
      f+1     :     0.000151
      f-1     :     0.000618
      f+2     :     0.000240
      f-2     :     0.000212
      f+3     :     0.000571
      f-3     :     0.000277
      g0      :     0.000002  g :     0.000023
      g+1     :     0.000001
      g-1     :     0.000004
      g+2     :     0.000003
      g-2     :     0.000003
      g+3     :     0.000002
      g-3     :     0.000001
      g+4     :     0.000003
      g-4     :     0.000004
  1 Ags       :     2.316242  s :     2.316242
      pz      :     2.087774  p :     6.257439
      px      :     2.115763
      py      :     2.053902
      dz2     :     1.980398  d :     9.940501
      dxz     :     1.997366
      dyz     :     1.994275
      dx2y2   :     1.979638
      dxy     :     1.988825
      f0      :     0.000202  f :     0.002271
      f+1     :     0.000501
      f-1     :     0.000267
      f+2     :     0.000219
      f-2     :     0.000233
      f+3     :     0.000571
      f-3     :     0.000277
      g0      :     0.000002  g :     0.000023
      g+1     :     0.000003
      g-1     :     0.000002
      g+2     :     0.000003
      g-2     :     0.000003
      g+3     :     0.000002
      g-3     :     0.000001
      g+4     :     0.000004
      g-4     :     0.000003
  2 Ags       :     2.316242  s :     2.316242
      pz      :     2.087774  p :     6.257439
      px      :     2.115763
      py      :     2.053902
      dz2     :     1.980398  d :     9.940501
      dxz     :     1.997366
      dyz     :     1.994275
      dx2y2   :     1.979638
      dxy     :     1.988825
      f0      :     0.000202  f :     0.002271
      f+1     :     0.000501
      f-1     :     0.000267
      f+2     :     0.000219
      f-2     :     0.000233
      f+3     :     0.000571
      f-3     :     0.000277
      g0      :     0.000002  g :     0.000023
      g+1     :     0.000003
      g-1     :     0.000002
      g+2     :     0.000003
      g-2     :     0.000003
      g+3     :     0.000002
      g-3     :     0.000001
      g+4     :     0.000004
      g-4     :     0.000003
  3 Ags       :     2.386229  s :     2.386229
      pz      :     2.166875  p :     6.206732
      px      :     2.019929
      py      :     2.019928
      dz2     :     1.994360  d :     9.933438
      dxz     :     1.974904
      dyz     :     1.974914
      dx2y2   :     1.994630
      dxy     :     1.994630
      f0      :     0.000275  f :     0.001880
      f+1     :     0.000473
      f-1     :     0.000472
      f+2     :     0.000279
      f-2     :     0.000279
      f+3     :     0.000047
      f-3     :     0.000055
      g0      :     0.000002  g :     0.000018
      g+1     :     0.000004
      g-1     :     0.000004
      g+2     :     0.000003
      g-2     :     0.000003
      g+3     :     0.000001
      g-3     :     0.000001
      g+4     :     0.000000
      g-4     :     0.000000
  4 N s       :     2.911565  s :     2.911565
      pz      :     1.313748  p :     3.520481
      px      :     1.103369
      py      :     1.103364
      dz2     :     0.034008  d :     0.159263
      dxz     :     0.027961
      dyz     :     0.027962
      dx2y2   :     0.034666
      dxy     :     0.034666
      f0      :     0.000718  f :     0.008143
      f+1     :     0.000022
      f-1     :     0.000022
      f+2     :     0.002645
      f-2     :     0.002645
      f+3     :     0.000000
      f-3     :     0.002090
  5 H s       :     0.649987  s :     0.649987
      pz      :     0.155147  p :     0.401272
      px      :     0.138459
      py      :     0.107666
      dz2     :     0.009385  d :     0.056358
      dxz     :     0.014644
      dyz     :     0.006465
      dx2y2   :     0.013623
      dxy     :     0.012241
  6 H s       :     0.649991  s :     0.649991
      pz      :     0.155145  p :     0.401269
      px      :     0.092269
      py      :     0.153855
      dz2     :     0.009385  d :     0.056358
      dxz     :     0.002376
      dyz     :     0.018733
      dx2y2   :     0.011550
      dxy     :     0.014314
  7 H s       :     0.649987  s :     0.649987
      pz      :     0.155147  p :     0.401272
      px      :     0.138459
      py      :     0.107666
      dz2     :     0.009385  d :     0.056358
      dxz     :     0.014644
      dyz     :     0.006465
      dx2y2   :     0.013623
      dxy     :     0.012241


                      *****************************
                      * MAYER POPULATION ANALYSIS *
                      *****************************

  NA   - Mulliken gross atomic population
  ZA   - Total nuclear charge
  QA   - Mulliken gross atomic charge
  VA   - Mayer's total valence
  BVA  - Mayer's bonded valence
  FA   - Mayer's free valence

  ATOM       NA         ZA         QA         VA         BVA        FA
  0 Ag    18.5329    19.0000     0.4671     1.0546     1.0546    -0.0000
  1 Ag    18.5330    19.0000     0.4670     1.0547     1.0547    -0.0000
  2 Ag    18.5330    19.0000     0.4670     1.0547     1.0547    -0.0000
  3 Ag    18.5442    19.0000     0.4558     1.0562     1.0562    -0.0000
  4 N      7.4152     7.0000    -0.4152     3.1770     3.1770     0.0000
  5 H      0.8139     1.0000     0.1861     1.0576     1.0576     0.0000
  6 H      0.8139     1.0000     0.1861     1.0575     1.0575    -0.0000
  7 H      0.8139     1.0000     0.1861     1.0576     1.0576     0.0000

  Mayer bond orders larger than 0.100000
B(  0-Ag,  1-Ag) :   0.3349 B(  0-Ag,  2-Ag) :   0.3349 B(  0-Ag,  3-Ag) :   0.3485 
B(  1-Ag,  2-Ag) :   0.3349 B(  1-Ag,  3-Ag) :   0.3485 B(  2-Ag,  3-Ag) :   0.3485 
B(  4-N ,  5-H ) :   1.0190 B(  4-N ,  6-H ) :   1.0189 B(  4-N ,  7-H ) :   1.0190 


-------
TIMINGS
-------

Total SCF time: 0 days 0 hours 0 min 27 sec 

Total time                  ....      27.606 sec
Sum of individual times     ....      27.266 sec  ( 98.8%)

Fock matrix formation       ....      25.160 sec  ( 91.1%)
  XC integration            ....       0.903 sec  (  3.6% of F)
    Basis function eval.    ....       0.124 sec  ( 13.7% of XC)
    Density eval.           ....       0.110 sec  ( 12.2% of XC)
    XC-Functional eval.     ....       0.043 sec  (  4.8% of XC)
    XC-Potential eval.      ....       0.171 sec  ( 18.9% of XC)
Diagonalization             ....       0.179 sec  (  0.6%)
Density matrix formation    ....       0.018 sec  (  0.1%)
Population analysis         ....       0.018 sec  (  0.1%)
Initial guess               ....       1.326 sec  (  4.8%)
Orbital Transformation      ....       0.000 sec  (  0.0%)
Orbital Orthonormalization  ....       0.000 sec  (  0.0%)
DIIS solution               ....       0.093 sec  (  0.3%)
Grid generation             ....       0.472 sec  (  1.7%)

-------------------------   --------------------
FINAL SINGLE POINT ENERGY      -643.903316280668
-------------------------   --------------------


                            ***************************************
                            *     ORCA property calculations      *
                            ***************************************

                                    ---------------------
                                    Active property flags
                                    ---------------------
   (+) Dipole Moment


------------------------------------------------------------------------------
                       ORCA ELECTRIC PROPERTIES CALCULATION
------------------------------------------------------------------------------

Dipole Moment Calculation                       ... on
Quadrupole Moment Calculation                   ... off
Polarizability Calculation                      ... off
GBWName                                         ... Ag04C2_NH3_F.gbw
Electron density file                           ... Ag04C2_NH3_F.scfp
The origin for moment calculation is the CENTER OF MASS  = ( 0.000000,  0.000000  0.083833)

-------------
DIPOLE MOMENT
-------------
                                X             Y             Z
Electronic contribution:     -0.00000       0.00005      41.83720
Nuclear contribution   :      0.00000       0.00000     -43.35494
                        -----------------------------------------
Total Dipole Moment    :     -0.00000       0.00005      -1.51774
                        -----------------------------------------
Magnitude (a.u.)       :      1.51774
Magnitude (Debye)      :      3.85778



--------------------
Rotational spectrum 
--------------------
 
Rotational constants in cm-1:     0.020453     0.016499     0.016499 
Rotational constants in MHz :   613.168216   494.640125   494.640113 

 Dipole components along the rotational axes: 
x,y,z [a.u.] :    -1.517738     0.000050    -0.000000 
x,y,z [Debye]:    -3.857783     0.000127    -0.000000 

 

Timings for individual modules:

Sum of individual times         ...       29.943 sec (=   0.499 min)
GTO integral calculation        ...        1.971 sec (=   0.033 min)   6.6 %
SCF iterations                  ...       27.972 sec (=   0.466 min)  93.4 %
                             ****ORCA TERMINATED NORMALLY****
TOTAL RUN TIME: 0 days 0 hours 0 minutes 30 seconds 412 msec
