
                                 *****************
                                 * O   R   C   A *
                                 *****************

           --- An Ab Initio, DFT and Semiempirical electronic structure package ---

                  #######################################################
                  #                        -***-                        #
                  #          Department of theory and spectroscopy      #
                  #               Directorship: Frank Neese             #
                  #        Max Planck Institute fuer Kohlenforschung    #
                  #                Kaiser Wilhelm Platz 1               #
                  #                 D-45470 Muelheim/Ruhr               #
                  #                      Germany                        #
                  #                                                     #
                  #                  All rights reserved                #
                  #                        -***-                        #
                  #######################################################


                         Program Version 4.2.0 -  RELEASE  -


 With contributions from (in alphabetic order):
   Daniel Aravena         : Magnetic Suceptibility
   Michael Atanasov       : Ab Initio Ligand Field Theory (pilot matlab implementation)
   Alexander A. Auer      : GIAO ZORA, VPT2
   Ute Becker             : Parallelization
   Giovanni Bistoni       : ED, misc. LED, open-shell LED, HFLED
   Martin Brehm           : Molecular dynamics
   Dmytro Bykov           : SCF Hessian
   Vijay G. Chilkuri      : MRCI spin determinant printing, contributions to CSF-ICE
   Dipayan Datta          : RHF DLPNO-CCSD density
   Achintya Kumar Dutta   : EOM-CC, STEOM-CC
   Dmitry Ganyushin       : Spin-Orbit,Spin-Spin,Magnetic field MRCI
   Miquel Garcia          : C-PCM Hessian, Gaussian charge scheme
   Yang Guo               : DLPNO-NEVPT2, CIM, IAO-localization
   Andreas Hansen         : Spin unrestricted coupled pair/coupled cluster methods
   Benjamin Helmich-Paris : CASSCF linear response (MC-RPA)
   Lee Huntington         : MR-EOM, pCC
   Robert Izsak           : Overlap fitted RIJCOSX, COSX-SCS-MP3, EOM
   Christian Kollmar      : KDIIS, OOCD, Brueckner-CCSD(T), CCSD density
   Simone Kossmann        : Meta GGA functionals, TD-DFT gradient, OOMP2, MP2 Hessian
   Martin Krupicka        : AUTO-CI
   Lucas Lang             : DCDCAS
   Dagmar Lenk            : GEPOL surface, SMD
   Dimitrios Liakos       : Extrapolation schemes; Compound Job, initial MDCI parallelization
   Dimitrios Manganas     : Further ROCIS development; embedding schemes
   Dimitrios Pantazis     : SARC Basis sets
   Taras Petrenko         : DFT Hessian,TD-DFT gradient, ASA, ECA, R-Raman, ABS, FL, XAS/XES, NRVS
   Peter Pinski           : DLPNO-MP2, DLPNO-MP2 Gradient
   Christoph Reimann      : Effective Core Potentials
   Marius Retegan         : Local ZFS, SOC
   Christoph Riplinger    : Optimizer, TS searches, QM/MM, DLPNO-CCSD(T), (RO)-DLPNO pert. Triples
   Tobias Risthaus        : Range-separated hybrids, TD-DFT gradient, RPA, STAB
   Michael Roemelt        : Original ROCIS implementation
   Masaaki Saitow         : Open-shell DLPNO-CCSD energy and density
   Barbara Sandhoefer     : DKH picture change effects
   Avijit Sen             : IP-ROCIS
   Kantharuban Sivalingam : CASSCF convergence, NEVPT2, FIC-MRCI
   Bernardo de Souza      : ESD, SOC TD-DFT
   Georgi Stoychev        : AutoAux, RI-MP2 NMR
   Willem Van den Heuvel  : Paramagnetic NMR
   Boris Wezisla          : Elementary symmetry handling
   Frank Wennmohs         : Technical directorship


 We gratefully acknowledge several colleagues who have allowed us to
 interface, adapt or use parts of their codes:
   Stefan Grimme, W. Hujo, H. Kruse,             : VdW corrections, initial TS optimization,
                  C. Bannwarth                     DFT functionals, gCP, sTDA/sTD-DF
   Ed Valeev, F. Pavosevic, A. Kumar             : LibInt (2-el integral package), F12 methods
   Garnet Chan, S. Sharma, J. Yang, R. Olivares  : DMRG
   Ulf Ekstrom                                   : XCFun DFT Library
   Mihaly Kallay                                 : mrcc  (arbitrary order and MRCC methods)
   Andreas Klamt, Michael Diedenhofen            : otool_cosmo (COSMO solvation model)
   Jiri Pittner, Ondrej Demel                    : Mk-CCSD
   Frank Weinhold                                : gennbo (NPA and NBO analysis)
   Christopher J. Cramer and Donald G. Truhlar   : smd solvation model
   Lars Goerigk                                  : TD-DFT with DH, B97 family of functionals
   V. Asgeirsson, H. Jonsson                     : NEB implementation
   FAccTs GmbH                                   : IRC, NEB, NEB-TS, Multilevel, MM, QM/MM, CI optimization
   S Lehtola, MJT Oliveira, MAL Marques          : LibXC Library


 Your calculation uses the libint2 library for the computation of 2-el integrals
 For citations please refer to: http://libint.valeyev.net

 Your ORCA version has been built with support for libXC version: 4.2.3
 For citations please refer to: https://tddft.org/programs/libxc/

 This ORCA versions uses:
   CBLAS   interface :  Fast vector & matrix operations
   LAPACKE interface :  Fast linear algebra routines
   SCALAPACK package :  Parallel linear algebra routines


Your calculation utilizes the DFT-NL dispersion correction.
Cite in your paper:
Vydrov, O. A.; Van Voorhis, T. J. Chem. Phys. 2010, 133, 244103
Hujo, W.; Grimme, S. J. Chem. Theory Comput. 2011, 7, 3866 
   

----- Orbital basis set information -----
Your calculation utilizes the basis: def2-TZVPPD
   F. Weigend and R. Ahlrichs, Phys. Chem. Chem. Phys. 7, 3297 (2005).
   D. Rappoport and F. Furche, J. Chem. Phys. 133 134105 (2010).

----- AuxJK basis set information -----
Your calculation utilizes the auxiliary basis: def2/JK
   H-Ba, Hf-Rn: F. Weigend, J. Comput. Chem. 29, 167 (2008).

cite the ECPs for Ag [Def2-ECP] as follows:
Ce-Yb(ecp-28): M. Dolg, H. Stoll, H.Preuss, J. Chem. Phys., 1989, 90, 1730-1734.
Y-Cd(ecp-28), Hf-Hg(ecp-46): D. Andrae,U. Haeussermann, M. Dolg, H. Stoll, H. Preuss, Theor. Chim. Acta, 1990, 77, 123-141.
In-Sb(ecp-28), Tl-Bi(ecp-46): B. Metz, H. Stoll, M. Dolg, J. Chem. Phys., 2000, 113, 2563-2569.
Te-Xe(ecp-28), Po-Rn(ecp-46): K. A. Peterson, D. Figgen, E. Goll, H. Stoll, M. Dolg, J. Chem. Phys., 2003, 119, 11113-11123.
Rb(ecp-28), Cs(ecp-46): T. Leininger, A. Nicklass, W. Kuechle, H. Stoll, M. Dolg, A. Bergner, Chem. Phys. Lett., 1996, 255, 274-280.
Sr(ecp-28), Ba(ecp-46): M. Kaupp, P. V. Schleyer, H. Stoll and H. Preuss, J. Chem. Phys., 1991, 94, 1360-1366.
La(ecp-46): M. Dolg, H. Stoll, A. Savin, H. Preuss, Theor. Chim. Acta, 1989, 75, 173-194.
Lu(ecp-28): X. Cao, M. Dolg, J. Chem. Phys., 2001, 115, 7348-7355.

ECP parameters for Ag [Def2-ECP] have been obtained from:
TURBOMOLE (7.0.2)

================================================================================
                                        WARNINGS
                       Please study these warnings very carefully!
================================================================================


INFO   : the flag for use of LIBINT has been found!

================================================================================
                                       INPUT FILE
================================================================================
NAME = Ag04N0.in
|  1> #
|  2> # Ag04N0 wB97X-V/Def2-TZVPPD
|  3> #
|  4> ! wb97x-v def2-tzvppd def2/jk grid4 nofinalgrid
|  5> 
|  6> *xyz 0 1
|  7> Ag      -1.015022   -0.433109    0.700282 
|  8> Ag       0.974659   -2.209777    0.043294 
|  9> Ag       1.013798    0.433158   -0.699441 
| 10> Ag      -0.973435    2.209727   -0.044135 
| 11> *
| 12> 
| 13> %maxcore 5000
| 14> 
| 15> %pal
| 16> nprocs = 24
| 17> end
| 18> 
| 19> 
| 20>                          ****END OF INPUT****
================================================================================

                       ****************************
                       * Single Point Calculation *
                       ****************************

---------------------------------
CARTESIAN COORDINATES (ANGSTROEM)
---------------------------------
  Ag    -1.015022   -0.433109    0.700282
  Ag     0.974659   -2.209777    0.043294
  Ag     1.013798    0.433158   -0.699441
  Ag    -0.973435    2.209727   -0.044135

----------------------------
CARTESIAN COORDINATES (A.U.)
----------------------------
  NO LB      ZA    FRAG     MASS         X           Y           Z
   0 Ag   19.0000*   0   107.870   -1.918114   -0.818457    1.323341
   1 Ag   19.0000*   0   107.870    1.841839   -4.175873    0.081814
   2 Ag   19.0000*   0   107.870    1.915801    0.818550   -1.321752
   3 Ag   19.0000*   0   107.870   -1.839526    4.175779   -0.083403
* core charge reduced due to ECP

--------------------------------
INTERNAL COORDINATES (ANGSTROEM)
--------------------------------
 Ag     0   0   0     0.000000000000     0.00000000     0.00000000
 Ag     1   0   0     2.747182719829     0.00000000     0.00000000
 Ag     1   2   0     2.612614319875    61.56800028     0.00000000
 Ag     3   1   2     2.744944145458    61.60842682   179.99389243

---------------------------
INTERNAL COORDINATES (A.U.)
---------------------------
 Ag     0   0   0     0.000000000000     0.00000000     0.00000000
 Ag     1   0   0     5.191422980318     0.00000000     0.00000000
 Ag     1   2   0     4.937125558125    61.56800028     0.00000000
 Ag     3   1   2     5.187192687827    61.60842682   179.99389243

---------------------
BASIS SET INFORMATION
---------------------
There are 1 groups of distinct atoms

 Group   1 Type Ag  : 7s7p6d2f1g contracted to 6s4p3d2f1g pattern {211111/4111/411/11/1}

Atom   0Ag   basis set group =>   1
Atom   1Ag   basis set group =>   1
Atom   2Ag   basis set group =>   1
Atom   3Ag   basis set group =>   1
----------------------------------
AUXILIARY/JK BASIS SET INFORMATION
----------------------------------
There are 1 groups of distinct atoms

 Group   1 Type Ag  : 13s12p10d9f6g3h2i contracted to 11s10p9d8f6g3h2i pattern {31111111111/3111111111/211111111/21111111/111111/111/11}

Atom   0Ag   basis set group =>   1
Atom   1Ag   basis set group =>   1
Atom   2Ag   basis set group =>   1
Atom   3Ag   basis set group =>   1
-------------------------
ECP PARAMETER INFORMATION
-------------------------

 Group 1, Type Ag ECP Def2-ECP (replacing 28 core electrons, lmax=3)

Atom   0Ag   ECP group =>   1
Atom   1Ag   ECP group =>   1
Atom   2Ag   ECP group =>   1
Atom   3Ag   ECP group =>   1



           ************************************************************
           *        Program running with 24 parallel MPI-processes    *
           *              working on a common directory               *
           ************************************************************
------------------------------------------------------------------------------
                           ORCA GTO INTEGRAL CALCULATION
------------------------------------------------------------------------------

                         BASIS SET STATISTICS AND STARTUP INFO

 # of primitive gaussian shells          ...   92
 # of primitive gaussian functions       ...  324
 # of contracted shells                  ...   64
 # of contracted basis functions         ...  224
 Highest angular momentum                ...    4
 Maximum contraction depth               ...    4
 Integral package used                   ... LIBINT
 Integral threshhold            Thresh   ...  1.000e-10
 Primitive cut-off              TCut     ...  1.000e-11


------------------------------ INTEGRAL EVALUATION ----------------------------


 * One electron integrals 

   ECP integrals                         ... done
 Pre-screening matrix                    ... done
 Shell pair data                         ... done (   0.000 sec)



           ************************************************************
           *        Program running with 24 parallel MPI-processes    *
           *              working on a common directory               *
           ************************************************************
-------------------------------------------------------------------------------
                                 ORCA SCF
-------------------------------------------------------------------------------

------------
SCF SETTINGS
------------
Hamiltonian:
 Density Functional     Method          .... DFT(GTOs)
 Exchange Functional    Exchange        .... WB97X-V
 Correlation Functional Correlation     .... WB97X-V
 Gradients option       PostSCFGGA      .... off
 Hybrid DFT is turned on
   Fraction HF Exchange ScalHFX         ....  0.167000
   Scaling of DF-GGA-X  ScalDFX         ....  0.000000
   Scaling of DF-GGA-C  ScalDFC         ....  1.000000
   Scaling of DF-LDA-C  ScalLDAC        ....  1.000000
   Perturbative correction              ....  0.000000
   Density functional embedding theory  .... OFF
 Long-range corrected/Screened/Range-Separated Hybrid DFT is turned on
   Amount of maximum screened exact exchange              ....  0.833000
   Range separation parameter mu (erf(mu*r12)/r12)        ....  0.300000
   NL short-range parameter             ....  6.000000
   NL long-range parameter              ....  0.010000


General Settings:
 Integral files         IntName         .... Ag04N0
 Hartree-Fock type      HFTyp           .... RHF
 Total Charge           Charge          ....    0
 Multiplicity           Mult            ....    1
 Number of Electrons    NEL             ....   76
 Basis Dimension        Dim             ....  224
 Nuclear Repulsion      ENuc            ....    390.9440555712 Eh

Convergence Acceleration:
 DIIS                   CNVDIIS         .... on
   Start iteration      DIISMaxIt       ....    12
   Startup error        DIISStart       ....  0.200000
   # of expansion vecs  DIISMaxEq       ....     5
   Bias factor          DIISBfac        ....   1.050
   Max. coefficient     DIISMaxC        ....  10.000
 Newton-Raphson         CNVNR           .... off
 SOSCF                  CNVSOSCF        .... off
 Level Shifting         CNVShift        .... on
   Level shift para.    LevelShift      ....    0.2500
   Turn off err/grad.   ShiftErr        ....    0.0010
 Zerner damping         CNVZerner       .... off
 Static damping         CNVDamp         .... on
   Fraction old density DampFac         ....    0.7000
   Max. Damping (<1)    DampMax         ....    0.9800
   Min. Damping (>=0)   DampMin         ....    0.0000
   Turn off err/grad.   DampErr         ....    0.1000
 Fernandez-Rico         CNVRico         .... off

SCF Procedure:
 Maximum # iterations   MaxIter         ....   125
 SCF integral mode      SCFMode         .... Direct
   Integral package                     .... LIBINT
 Reset frequency        DirectResetFreq ....    20
 Integral Threshold     Thresh          ....  1.000e-10 Eh
 Primitive CutOff       TCut            ....  1.000e-11 Eh

Convergence Tolerance:
 Convergence Check Mode ConvCheckMode   .... Total+1el-Energy
 Convergence forced     ConvForced      .... 0
 Energy Change          TolE            ....  1.000e-06 Eh
 1-El. energy change                    ....  1.000e-03 Eh
 DIIS Error             TolErr          ....  1.000e-06


Diagonalization of the overlap matrix:
Smallest eigenvalue                        ... 2.397e-03
Time for diagonalization                   ...    0.009 sec
Threshold for overlap eigenvalues          ... 1.000e-08
Number of eigenvalues below threshold      ... 0
Time for construction of square roots      ...    0.006 sec
Total time needed                          ...    0.015 sec

-------------------
DFT GRID GENERATION
-------------------

General Integration Accuracy     IntAcc      ...  4.670
Radial Grid Type                 RadialGrid  ... Gauss-Chebyshev
Angular Grid (max. acc.)         AngularGrid ... Lebedev-302
Angular grid pruning method      GridPruning ... 3 (G Style)
Weight generation scheme         WeightScheme... Becke
Basis function cutoff            BFCut       ...    1.0000e-10
Integration weight cutoff        WCut        ...    1.0000e-14
Grids for H and He will be reduced by one unit

# of grid points (after initial pruning)     ...  42632 (   0.0 sec)
# of grid points (after weights+screening)   ...  42194 (   0.0 sec)
nearest neighbour list constructed           ...    0.0 sec
Grid point re-assignment to atoms done       ...    0.0 sec
Grid point division into batches done        ...    0.3 sec
Reduced shell lists constructed in    0.3 sec

Total number of grid points                  ...    42194
Total number of batches                      ...      662
Average number of points per batch           ...       63
Average number of grid points per atom       ...    10548
Average number of shells per batch           ...    11.69 (18.27%)
Average number of basis functions per batch  ...    28.79 (12.85%)
Average number of large shells per batch     ...     7.52 (64.31%)
Average number of large basis fcns per batch ...    17.10 (59.40%)
Maximum spatial batch extension              ...  24.21, 24.92, 26.73 au
Average spatial batch extension              ...   0.47,  0.46,  0.50 au

Time for grid setup =    0.398 sec

------------------------------
INITIAL GUESS: MODEL POTENTIAL
------------------------------
Loading Hartree-Fock densities                     ... done
  calling /sw/apps/orca/orca_4_2_0_linux_x86-64_openmpi314/orca Ag04N0_atom47.inp > Ag04N0_atom47.out in order to generate an atomic fitting density for atom 0 (Ag with ECP) on-the-fly... 
    atom 0 (Ag), assumed electronic state with S=2: 1s2 2s2 2p6 3s2 3p6 4s2 3d10 4p6 5s2 4d9           ... done
Calculating cut-offs                               ... done
Setting up the integral package                    ... done
Initializing the effective Hamiltonian             ... done
Starting the Coulomb interaction                   ... done (   0.0 sec)
Reading the grid                                   ... done
Mapping shells                                     ... done
Starting the XC term evaluation                    ... done (   0.0 sec)
  promolecular density results
     # of electrons  =    188.002003962
     EX              =   -450.163587699
     EC              =    -13.041652282
     EX+EC           =   -463.205239981
Transforming the Hamiltonian                       ... done (   0.0 sec)
Diagonalizing the Hamiltonian                      ... done (   0.0 sec)
Back transforming the eigenvectors                 ... done (   0.0 sec)
Now organizing SCF variables                       ... done
                      ------------------
                      INITIAL GUESS DONE (   1.7 sec)
                      ------------------
--------------
SCF ITERATIONS
--------------
ITER       Energy         Delta-E        Max-DP      RMS-DP      [F,P]     Damp
               ***  Starting incremental Fock matrix formation  ***
  0   -588.0003084495   0.000000000000 0.07805424  0.00143114  0.3705117 0.7000
  1   -588.0724595568  -0.072151107371 0.06818274  0.00119904  0.2738026 0.7000
  2   -588.1091671555  -0.036707598645 0.05050144  0.00087180  0.2006359 0.7000
                               ***Turning on DIIS***
  3   -588.1321894758  -0.023022320350 0.03615433  0.00062758  0.1443957 0.7000
  4   -588.1483728188  -0.016183342954 0.02688087  0.00049351  0.1025537 0.7000
  5   -588.1599560933  -0.011583274540 0.06774074  0.00128002  0.0711387 0.0000
  6   -588.1886502358  -0.028694142452 0.00587596  0.00014206  0.0024399 0.0000
  7   -588.1888875486  -0.000237312831 0.00445159  0.00010059  0.0017970 0.0000
  8   -588.1889957440  -0.000108195341 0.00340342  0.00007447  0.0010800 0.0000
  9   -588.1890502275  -0.000054483525 0.00310709  0.00006053  0.0006053 0.0000
 10   -588.1890664387  -0.000016211180 0.00044008  0.00000961  0.0001022 0.0000
 11   -588.1890669230  -0.000000484383 0.00011237  0.00000250  0.0000561 0.0000
                 **** Energy Check signals convergence ****

               *****************************************************
               *                     SUCCESS                       *
               *           SCF CONVERGED AFTER  12 CYCLES          *
               *****************************************************


Setting up the DFT-NL grid :

General Integration Accuracy     IntAcc      ...  4.340
Radial Grid Type                 RadialGrid  ... Gauss-Chebyshev
Angular Grid (max. acc.)         AngularGrid ... Lebedev-110
Angular grid pruning method      GridPruning ... 3 (G Style)
Weight generation scheme         WeightScheme... Becke
Basis function cutoff            BFCut       ...    1.0000e-10
Integration weight cutoff        WCut        ...    1.0000e-14
Grids for H and He will be reduced by one unit

# of grid points (after initial pruning)     ...  13032 (   0.0 sec)
# of grid points (after weights+screening)   ...  12940 (   0.0 sec)
nearest neighbour list constructed           ...    0.0 sec
Grid point re-assignment to atoms done       ...    0.0 sec
Grid point division into batches done        ...    0.0 sec
Reduced shell lists constructed in    0.0 sec

Total number of grid points                  ...    12940
Total number of batches                      ...      204
Average number of points per batch           ...       63
Average number of grid points per atom       ...     3235
Average number of shells per batch           ...    17.90 (27.97%)
Average number of basis functions per batch  ...    49.50 (22.10%)
Average number of large shells per batch     ...    14.20 (79.33%)
Average number of large basis fcns per batch ...    37.20 (75.15%)
Maximum spatial batch extension              ...  24.26, 24.62, 39.42 au
Average spatial batch extension              ...   0.65,  0.65,  0.76 au

Final grid set up in    0.0 sec

-------------------------------------------------------------------------------
                         DFT-NL dispersion correction                          
-------------------------------------------------------------------------------

SC Energy -588.189066986 
NL    Energy 0.285475159 
SC+NL Energy -587.903591827 
NL done in    0.0 sec
-------------------------------------------------------------------------------

----------------
TOTAL SCF ENERGY
----------------

Total Energy       :         -587.90359183 Eh          -15997.67004 eV

Components:
Nuclear Repulsion  :          390.94405557 Eh           10638.12858 eV
Electronic Energy  :         -978.84764740 Eh          -26635.79862 eV
One Electron Energy:        -1827.15754354 Eh          -49719.48445 eV
Two Electron Energy:          848.30989614 Eh           23083.68583 eV

Virial components:
Potential Energy   :         -813.28495567 Eh          -22130.60874 eV
Kinetic Energy     :          225.38136384 Eh            6132.93870 eV
Virial Ratio       :            3.60848360


DFT components:
N(Alpha)           :       38.000015620009 electrons
N(Beta)            :       38.000015620009 electrons
N(Total)           :       76.000031240018 electrons
E(X)               :      -34.400748860992 Eh       
E(C)               :       -3.600008073321 Eh       
NL Energy, E(C,NL) :        0.285475159023 Eh       
E(XC)              :      -37.715281775290 Eh       
DFET-embed. en.    :        0.000000000000 Eh       

---------------
SCF CONVERGENCE
---------------

  Last Energy change         ...   -6.2615e-08  Tolerance :   1.0000e-06
  Last MAX-Density change    ...    6.4536e-05  Tolerance :   1.0000e-05
  Last RMS-Density change    ...    1.4483e-06  Tolerance :   1.0000e-06
  Last DIIS Error            ...    2.7594e-05  Tolerance :   1.0000e-06

             **** THE GBW FILE WAS UPDATED (Ag04N0.gbw) ****
             **** DENSITY FILE WAS UPDATED (Ag04N0.scfp) ****
             **** ENERGY FILE WAS UPDATED (Ag04N0.en.tmp) ****
             **** THE GBW FILE WAS UPDATED (Ag04N0.gbw) ****
             **** DENSITY FILE WAS UPDATED (Ag04N0.scfp) ****
----------------
ORBITAL ENERGIES
----------------

  NO   OCC          E(Eh)            E(eV) 
   0   2.0000      -3.844458      -104.6130 
   1   2.0000      -3.844050      -104.6019 
   2   2.0000      -3.816100      -103.8414 
   3   2.0000      -3.816049      -103.8400 
   4   2.0000      -2.447491       -66.5996 
   5   2.0000      -2.442191       -66.4554 
   6   2.0000      -2.441979       -66.4496 
   7   2.0000      -2.441689       -66.4417 
   8   2.0000      -2.441582       -66.4388 
   9   2.0000      -2.441211       -66.4287 
  10   2.0000      -2.415520       -65.7296 
  11   2.0000      -2.415408       -65.7266 
  12   2.0000      -2.413879       -65.6850 
  13   2.0000      -2.413809       -65.6831 
  14   2.0000      -2.412118       -65.6371 
  15   2.0000      -2.412068       -65.6357 
  16   2.0000      -0.483264       -13.1503 
  17   2.0000      -0.482352       -13.1255 
  18   2.0000      -0.464844       -12.6491 
  19   2.0000      -0.460592       -12.5333 
  20   2.0000      -0.457016       -12.4360 
  21   2.0000      -0.453072       -12.3287 
  22   2.0000      -0.440748       -11.9934 
  23   2.0000      -0.437209       -11.8971 
  24   2.0000      -0.423627       -11.5275 
  25   2.0000      -0.422346       -11.4926 
  26   2.0000      -0.414934       -11.2909 
  27   2.0000      -0.410327       -11.1656 
  28   2.0000      -0.409926       -11.1547 
  29   2.0000      -0.408965       -11.1285 
  30   2.0000      -0.403415       -10.9775 
  31   2.0000      -0.403202       -10.9717 
  32   2.0000      -0.403009       -10.9664 
  33   2.0000      -0.400026       -10.8853 
  34   2.0000      -0.396384       -10.7862 
  35   2.0000      -0.383668       -10.4401 
  36   2.0000      -0.333934        -9.0868 
  37   2.0000      -0.229926        -6.2566 
  38   0.0000      -0.035912        -0.9772 
  39   0.0000      -0.002467        -0.0671 
  40   0.0000       0.015322         0.4169 
  41   0.0000       0.042291         1.1508 
  42   0.0000       0.049214         1.3392 
  43   0.0000       0.064370         1.7516 
  44   0.0000       0.069983         1.9043 
  45   0.0000       0.094567         2.5733 
  46   0.0000       0.112779         3.0689 
  47   0.0000       0.123462         3.3596 
  48   0.0000       0.131557         3.5798 
  49   0.0000       0.148915         4.0522 
  50   0.0000       0.152804         4.1580 
  51   0.0000       0.172222         4.6864 
  52   0.0000       0.173993         4.7346 
  53   0.0000       0.203883         5.5479 
  54   0.0000       0.221875         6.0375 
  55   0.0000       0.233445         6.3524 
  56   0.0000       0.235185         6.3997 
  57   0.0000       0.243291         6.6203 
  58   0.0000       0.248596         6.7646 
  59   0.0000       0.248776         6.7695 
  60   0.0000       0.289839         7.8869 
  61   0.0000       0.309915         8.4332 
  62   0.0000       0.324305         8.8248 
  63   0.0000       0.337140         9.1741 
  64   0.0000       0.413268        11.2456 
  65   0.0000       0.438980        11.9453 
  66   0.0000       0.461124        12.5478 
  67   0.0000       0.473826        12.8935 
  68   0.0000       0.480294        13.0695 
  69   0.0000       0.498552        13.5663 
  70   0.0000       0.502845        13.6831 
  71   0.0000       0.545510        14.8441 
  72   0.0000       0.554220        15.0811 
  73   0.0000       0.565483        15.3876 
  74   0.0000       0.642413        17.4810 
  75   0.0000       0.654972        17.8227 
  76   0.0000       0.656487        17.8639 
  77   0.0000       0.660132        17.9631 
  78   0.0000       0.686612        18.6837 
  79   0.0000       0.688375        18.7316 
  80   0.0000       0.703379        19.1399 
  81   0.0000       0.731300        19.8997 
  82   0.0000       0.749803        20.4032 
  83   0.0000       0.765819        20.8390 
  84   0.0000       0.776708        21.1353 
  85   0.0000       0.786925        21.4133 
  86   0.0000       0.841689        22.9035 
  87   0.0000       0.903440        24.5839 
  88   0.0000       1.577622        42.9293 
  89   0.0000       1.630107        44.3575 
  90   0.0000       1.649959        44.8977 
  91   0.0000       1.654907        45.0323 
  92   0.0000       1.655368        45.0449 
  93   0.0000       1.662799        45.2471 
  94   0.0000       1.665940        45.3325 
  95   0.0000       1.678897        45.6851 
  96   0.0000       1.680095        45.7177 
  97   0.0000       1.683795        45.8184 
  98   0.0000       1.696767        46.1714 
  99   0.0000       1.709064        46.5060 
 100   0.0000       1.709780        46.5255 
 101   0.0000       1.715130        46.6711 
 102   0.0000       1.719184        46.7814 
 103   0.0000       1.727267        47.0013 
 104   0.0000       1.732264        47.1373 
 105   0.0000       1.732318        47.1388 
 106   0.0000       1.734139        47.1883 
 107   0.0000       1.735129        47.2153 
 108   0.0000       1.736201        47.2444 
 109   0.0000       1.741674        47.3934 
 110   0.0000       1.746328        47.5200 
 111   0.0000       1.759948        47.8906 
 112   0.0000       1.766018        48.0558 
 113   0.0000       1.770110        48.1671 
 114   0.0000       1.780577        48.4520 
 115   0.0000       1.789740        48.7013 
 116   0.0000       1.789947        48.7069 
 117   0.0000       1.809064        49.2271 
 118   0.0000       1.826232        49.6943 
 119   0.0000       1.831987        49.8509 
 120   0.0000       1.836343        49.9694 
 121   0.0000       1.846986        50.2591 
 122   0.0000       1.853205        50.4283 
 123   0.0000       1.855117        50.4803 
 124   0.0000       1.875310        51.0298 
 125   0.0000       1.960177        53.3391 
 126   0.0000       2.007280        54.6209 
 127   0.0000       2.077169        56.5226 
 128   0.0000       2.100632        57.1611 
 129   0.0000       2.184643        59.4471 
 130   0.0000       2.200907        59.8897 
 131   0.0000       2.210646        60.1547 
 132   0.0000       2.213039        60.2198 
 133   0.0000       2.227303        60.6080 
 134   0.0000       2.228166        60.6315 
 135   0.0000       2.232872        60.7595 
 136   0.0000       2.246112        61.1198 
 137   0.0000       2.254859        61.3578 
 138   0.0000       2.264250        61.6134 
 139   0.0000       2.264477        61.6195 
 140   0.0000       2.268735        61.7354 
 141   0.0000       2.308067        62.8057 
 142   0.0000       2.327935        63.3463 
 143   0.0000       2.330143        63.4064 
 144   0.0000       2.330661        63.4205 
 145   0.0000       2.351901        63.9985 
 146   0.0000       2.386150        64.9304 
 147   0.0000       2.475343        67.3575 
 148   0.0000       2.512127        68.3585 
 149   0.0000       2.640515        71.8521 
 150   0.0000       2.667682        72.5913 
 151   0.0000       2.747510        74.7636 
 152   0.0000       4.894786       133.1939 
 153   0.0000       4.896184       133.2320 
 154   0.0000       4.900563       133.3511 
 155   0.0000       4.914351       133.7263 
 156   0.0000       4.914464       133.7294 
 157   0.0000       4.922580       133.9502 
 158   0.0000       4.927502       134.0841 
 159   0.0000       4.929689       134.1436 
 160   0.0000       4.934357       134.2707 
 161   0.0000       4.935145       134.2921 
 162   0.0000       4.937555       134.3577 
 163   0.0000       4.965528       135.1189 
 164   0.0000       4.967156       135.1632 
 165   0.0000       4.967792       135.1805 
 166   0.0000       4.971069       135.2697 
 167   0.0000       4.988257       135.7374 
 168   0.0000       5.002863       136.1348 
 169   0.0000       5.004579       136.1815 
 170   0.0000       5.009380       136.3122 
 171   0.0000       5.011568       136.3717 
 172   0.0000       5.012715       136.4029 
 173   0.0000       5.023359       136.6926 
 174   0.0000       5.027595       136.8078 
 175   0.0000       5.119458       139.3075 
 176   0.0000       5.143790       139.9696 
 177   0.0000       5.163185       140.4974 
 178   0.0000       5.165675       140.5652 
 179   0.0000       5.202810       141.5756 
 180   0.0000       5.668055       154.2356 
 181   0.0000       5.669040       154.2624 
 182   0.0000       5.669859       154.2847 
 183   0.0000       5.669886       154.2854 
 184   0.0000       5.670244       154.2952 
 185   0.0000       5.670760       154.3092 
 186   0.0000       5.670906       154.3132 
 187   0.0000       5.671123       154.3191 
 188   0.0000       5.671899       154.3402 
 189   0.0000       5.673124       154.3735 
 190   0.0000       5.673555       154.3853 
 191   0.0000       5.673919       154.3952 
 192   0.0000       5.674087       154.3998 
 193   0.0000       5.675169       154.4292 
 194   0.0000       5.675213       154.4304 
 195   0.0000       5.675778       154.4458 
 196   0.0000       5.679661       154.5514 
 197   0.0000       5.689492       154.8190 
 198   0.0000       5.698496       155.0639 
 199   0.0000       5.699888       155.1018 
 200   0.0000       5.700526       155.1192 
 201   0.0000       5.700917       155.1298 
 202   0.0000       5.701103       155.1349 
 203   0.0000       5.701212       155.1379 
 204   0.0000       5.701692       155.1509 
 205   0.0000       5.701795       155.1537 
 206   0.0000       5.702692       155.1781 
 207   0.0000       5.702989       155.1862 
 208   0.0000       5.703025       155.1872 
 209   0.0000       5.703084       155.1888 
 210   0.0000       5.703187       155.1916 
 211   0.0000       5.703573       155.2021 
 212   0.0000       5.703881       155.2105 
 213   0.0000       5.704754       155.2343 
 214   0.0000       5.705127       155.2444 
 215   0.0000       5.707757       155.3160 
 216   0.0000      33.507970       911.7982 
 217   0.0000      33.813648       920.1161 
 218   0.0000      33.845498       920.9828 
 219   0.0000      33.927206       923.2062 
 220   0.0000     110.916359      3018.1876 
 221   0.0000     111.024429      3021.1283 
 222   0.0000     111.026322      3021.1798 
 223   0.0000     111.042308      3021.6148 

                    ********************************
                    * MULLIKEN POPULATION ANALYSIS *
                    ********************************

-----------------------
MULLIKEN ATOMIC CHARGES
-----------------------
   0 Ag:    0.156397
   1 Ag:   -0.156333
   2 Ag:    0.156113
   3 Ag:   -0.156177
Sum of atomic charges:   -0.0000000

--------------------------------
MULLIKEN REDUCED ORBITAL CHARGES
--------------------------------
  0 Ags       :     2.545357  s :     2.545357
      pz      :     2.024344  p :     6.370288
      px      :     2.082626
      py      :     2.263318
      dz2     :     1.990519  d :     9.925821
      dxz     :     1.985912
      dyz     :     1.990718
      dx2y2   :     1.979928
      dxy     :     1.978744
      f0      :     0.000238  f :     0.002112
      f+1     :     0.000249
      f-1     :     0.000201
      f+2     :     0.000334
      f-2     :     0.000333
      f+3     :     0.000331
      f-3     :     0.000426
      g0      :     0.000002  g :     0.000025
      g+1     :     0.000002
      g-1     :     0.000002
      g+2     :     0.000002
      g-2     :     0.000002
      g+3     :     0.000003
      g-3     :     0.000005
      g+4     :     0.000004
      g-4     :     0.000003
  1 Ags       :     3.145811  s :     3.145811
      pz      :     2.006604  p :     6.082892
      px      :     2.016602
      py      :     2.059685
      dz2     :     1.991888  d :     9.926577
      dxz     :     1.993509
      dyz     :     1.984942
      dx2y2   :     1.977645
      dxy     :     1.978593
      f0      :     0.000099  f :     0.001041
      f+1     :     0.000058
      f-1     :     0.000146
      f+2     :     0.000137
      f-2     :     0.000131
      f+3     :     0.000211
      f-3     :     0.000258
      g0      :     0.000001  g :     0.000012
      g+1     :     0.000001
      g-1     :     0.000002
      g+2     :     0.000001
      g-2     :     0.000001
      g+3     :     0.000001
      g-3     :     0.000002
      g+4     :     0.000003
      g-4     :     0.000002
  2 Ags       :     2.545467  s :     2.545467
      pz      :     2.024345  p :     6.370586
      px      :     2.082680
      py      :     2.263561
      dz2     :     1.990499  d :     9.925691
      dxz     :     1.985902
      dyz     :     1.990708
      dx2y2   :     1.979902
      dxy     :     1.978680
      f0      :     0.000239  f :     0.002117
      f+1     :     0.000250
      f-1     :     0.000202
      f+2     :     0.000334
      f-2     :     0.000334
      f+3     :     0.000333
      f-3     :     0.000428
      g0      :     0.000002  g :     0.000025
      g+1     :     0.000002
      g-1     :     0.000002
      g+2     :     0.000002
      g-2     :     0.000002
      g+3     :     0.000003
      g-3     :     0.000005
      g+4     :     0.000004
      g-4     :     0.000003
  3 Ags       :     3.145671  s :     3.145671
      pz      :     2.006620  p :     6.082952
      px      :     2.016577
      py      :     2.059754
      dz2     :     1.991882  d :     9.926497
      dxz     :     1.993506
      dyz     :     1.984918
      dx2y2   :     1.977672
      dxy     :     1.978520
      f0      :     0.000100  f :     0.001045
      f+1     :     0.000058
      f-1     :     0.000147
      f+2     :     0.000138
      f-2     :     0.000132
      f+3     :     0.000212
      f-3     :     0.000259
      g0      :     0.000001  g :     0.000012
      g+1     :     0.000001
      g-1     :     0.000002
      g+2     :     0.000001
      g-2     :     0.000001
      g+3     :     0.000001
      g-3     :     0.000002
      g+4     :     0.000003
      g-4     :     0.000002


                     *******************************
                     * LOEWDIN POPULATION ANALYSIS *
                     *******************************

----------------------
LOEWDIN ATOMIC CHARGES
----------------------
   0 Ag:   -0.086678
   1 Ag:    0.087028
   2 Ag:   -0.087516
   3 Ag:    0.087167

-------------------------------
LOEWDIN REDUCED ORBITAL CHARGES
-------------------------------
  0 Ags       :     2.471401  s :     2.471401
      pz      :     2.045580  p :     6.650226
      px      :     2.157429
      py      :     2.447218
      dz2     :     1.993247  d :     9.961843
      dxz     :     1.994366
      dyz     :     1.995641
      dx2y2   :     1.990001
      dxy     :     1.988588
      f0      :     0.000298  f :     0.003174
      f+1     :     0.000365
      f-1     :     0.000306
      f+2     :     0.000523
      f-2     :     0.000517
      f+3     :     0.000468
      f-3     :     0.000697
      g0      :     0.000003  g :     0.000035
      g+1     :     0.000003
      g-1     :     0.000002
      g+2     :     0.000003
      g-2     :     0.000003
      g+3     :     0.000004
      g-3     :     0.000006
      g+4     :     0.000006
      g-4     :     0.000005
  1 Ags       :     2.825301  s :     2.825301
      pz      :     2.011921  p :     6.141175
      px      :     2.031139
      py      :     2.098115
      dz2     :     1.995704  d :     9.944893
      dxz     :     1.994634
      dyz     :     1.986097
      dx2y2   :     1.983591
      dxy     :     1.984867
      f0      :     0.000155  f :     0.001586
      f+1     :     0.000088
      f-1     :     0.000220
      f+2     :     0.000186
      f-2     :     0.000179
      f+3     :     0.000333
      f-3     :     0.000426
      g0      :     0.000001  g :     0.000016
      g+1     :     0.000001
      g-1     :     0.000002
      g+2     :     0.000001
      g-2     :     0.000001
      g+3     :     0.000001
      g-3     :     0.000002
      g+4     :     0.000004
      g-4     :     0.000002
  2 Ags       :     2.471615  s :     2.471615
      pz      :     2.045571  p :     6.650973
      px      :     2.157568
      py      :     2.447834
      dz2     :     1.993241  d :     9.961712
      dxz     :     1.994348
      dyz     :     1.995614
      dx2y2   :     1.989960
      dxy     :     1.988548
      f0      :     0.000299  f :     0.003181
      f+1     :     0.000365
      f-1     :     0.000307
      f+2     :     0.000523
      f-2     :     0.000518
      f+3     :     0.000470
      f-3     :     0.000699
      g0      :     0.000003  g :     0.000035
      g+1     :     0.000003
      g-1     :     0.000003
      g+2     :     0.000003
      g-2     :     0.000003
      g+3     :     0.000004
      g-3     :     0.000006
      g+4     :     0.000006
      g-4     :     0.000005
  3 Ags       :     2.825081  s :     2.825081
      pz      :     2.011945  p :     6.141295
      px      :     2.031132
      py      :     2.098217
      dz2     :     1.995702  d :     9.944849
      dxz     :     1.994629
      dyz     :     1.986081
      dx2y2   :     1.983601
      dxy     :     1.984836
      f0      :     0.000155  f :     0.001592
      f+1     :     0.000089
      f-1     :     0.000221
      f+2     :     0.000186
      f-2     :     0.000180
      f+3     :     0.000334
      f-3     :     0.000427
      g0      :     0.000001  g :     0.000016
      g+1     :     0.000001
      g-1     :     0.000002
      g+2     :     0.000001
      g-2     :     0.000001
      g+3     :     0.000001
      g-3     :     0.000002
      g+4     :     0.000004
      g-4     :     0.000002


                      *****************************
                      * MAYER POPULATION ANALYSIS *
                      *****************************

  NA   - Mulliken gross atomic population
  ZA   - Total nuclear charge
  QA   - Mulliken gross atomic charge
  VA   - Mayer's total valence
  BVA  - Mayer's bonded valence
  FA   - Mayer's free valence

  ATOM       NA         ZA         QA         VA         BVA        FA
  0 Ag    18.8436    19.0000     0.1564     1.4383     1.4383    -0.0000
  1 Ag    19.1563    19.0000    -0.1563     1.1578     1.1578    -0.0000
  2 Ag    18.8439    19.0000     0.1561     1.4390     1.4390    -0.0000
  3 Ag    19.1562    19.0000    -0.1562     1.1581     1.1581     0.0000

  Mayer bond orders larger than 0.100000
B(  0-Ag,  1-Ag) :   0.5171 B(  0-Ag,  2-Ag) :   0.4038 B(  0-Ag,  3-Ag) :   0.5174 
B(  1-Ag,  2-Ag) :   0.5176 B(  1-Ag,  3-Ag) :   0.1231 B(  2-Ag,  3-Ag) :   0.5176 


-------
TIMINGS
-------

Total SCF time: 0 days 0 hours 0 min 13 sec 

Total time                  ....      13.620 sec
Sum of individual times     ....      13.363 sec  ( 98.1%)

Fock matrix formation       ....      11.489 sec  ( 84.4%)
  XC integration            ....       0.376 sec  (  3.3% of F)
    Basis function eval.    ....       0.069 sec  ( 18.3% of XC)
    Density eval.           ....       0.055 sec  ( 14.6% of XC)
    XC-Functional eval.     ....       0.032 sec  (  8.5% of XC)
    XC-Potential eval.      ....       0.079 sec  ( 21.0% of XC)
Diagonalization             ....       0.087 sec  (  0.6%)
Density matrix formation    ....       0.013 sec  (  0.1%)
Population analysis         ....       0.007 sec  (  0.1%)
Initial guess               ....       1.285 sec  (  9.4%)
Orbital Transformation      ....       0.000 sec  (  0.0%)
Orbital Orthonormalization  ....       0.000 sec  (  0.0%)
DIIS solution               ....       0.044 sec  (  0.3%)
Grid generation             ....       0.437 sec  (  3.2%)

-------------------------   --------------------
FINAL SINGLE POINT ENERGY      -587.903591826637
-------------------------   --------------------


                            ***************************************
                            *     ORCA property calculations      *
                            ***************************************

                                    ---------------------
                                    Active property flags
                                    ---------------------
   (+) Dipole Moment


------------------------------------------------------------------------------
                       ORCA ELECTRIC PROPERTIES CALCULATION
------------------------------------------------------------------------------

Dipole Moment Calculation                       ... on
Quadrupole Moment Calculation                   ... off
Polarizability Calculation                      ... off
GBWName                                         ... Ag04N0.gbw
Electron density file                           ... Ag04N0.scfp
The origin for moment calculation is the CENTER OF MASS  = (-0.000000, -0.000000 -0.000000)

-------------
DIPOLE MOMENT
-------------
                                X             Y             Z
Electronic contribution:     -0.00152       0.00028       0.00079
Nuclear contribution   :      0.00000       0.00000       0.00000
                        -----------------------------------------
Total Dipole Moment    :     -0.00152       0.00028       0.00079
                        -----------------------------------------
Magnitude (a.u.)       :      0.00173
Magnitude (Debye)      :      0.00440



--------------------
Rotational spectrum 
--------------------
 
Rotational constants in cm-1:     0.045790     0.013394     0.010363 
Rotational constants in MHz :  1372.764620   401.554164   310.676613 

 Dipole components along the rotational axes: 
x,y,z [a.u.] :    -0.000851    -0.001507    -0.000003 
x,y,z [Debye]:    -0.002164    -0.003831    -0.000008 

 

Timings for individual modules:

Sum of individual times         ...       15.341 sec (=   0.256 min)
GTO integral calculation        ...        1.352 sec (=   0.023 min)   8.8 %
SCF iterations                  ...       13.990 sec (=   0.233 min)  91.2 %
                             ****ORCA TERMINATED NORMALLY****
TOTAL RUN TIME: 0 days 0 hours 0 minutes 15 seconds 790 msec
