
                                 *****************
                                 * O   R   C   A *
                                 *****************

           --- An Ab Initio, DFT and Semiempirical electronic structure package ---

                  #######################################################
                  #                        -***-                        #
                  #          Department of theory and spectroscopy      #
                  #               Directorship: Frank Neese             #
                  #        Max Planck Institute fuer Kohlenforschung    #
                  #                Kaiser Wilhelm Platz 1               #
                  #                 D-45470 Muelheim/Ruhr               #
                  #                      Germany                        #
                  #                                                     #
                  #                  All rights reserved                #
                  #                        -***-                        #
                  #######################################################


                         Program Version 4.2.0 -  RELEASE  -


 With contributions from (in alphabetic order):
   Daniel Aravena         : Magnetic Suceptibility
   Michael Atanasov       : Ab Initio Ligand Field Theory (pilot matlab implementation)
   Alexander A. Auer      : GIAO ZORA, VPT2
   Ute Becker             : Parallelization
   Giovanni Bistoni       : ED, misc. LED, open-shell LED, HFLED
   Martin Brehm           : Molecular dynamics
   Dmytro Bykov           : SCF Hessian
   Vijay G. Chilkuri      : MRCI spin determinant printing, contributions to CSF-ICE
   Dipayan Datta          : RHF DLPNO-CCSD density
   Achintya Kumar Dutta   : EOM-CC, STEOM-CC
   Dmitry Ganyushin       : Spin-Orbit,Spin-Spin,Magnetic field MRCI
   Miquel Garcia          : C-PCM Hessian, Gaussian charge scheme
   Yang Guo               : DLPNO-NEVPT2, CIM, IAO-localization
   Andreas Hansen         : Spin unrestricted coupled pair/coupled cluster methods
   Benjamin Helmich-Paris : CASSCF linear response (MC-RPA)
   Lee Huntington         : MR-EOM, pCC
   Robert Izsak           : Overlap fitted RIJCOSX, COSX-SCS-MP3, EOM
   Christian Kollmar      : KDIIS, OOCD, Brueckner-CCSD(T), CCSD density
   Simone Kossmann        : Meta GGA functionals, TD-DFT gradient, OOMP2, MP2 Hessian
   Martin Krupicka        : AUTO-CI
   Lucas Lang             : DCDCAS
   Dagmar Lenk            : GEPOL surface, SMD
   Dimitrios Liakos       : Extrapolation schemes; Compound Job, initial MDCI parallelization
   Dimitrios Manganas     : Further ROCIS development; embedding schemes
   Dimitrios Pantazis     : SARC Basis sets
   Taras Petrenko         : DFT Hessian,TD-DFT gradient, ASA, ECA, R-Raman, ABS, FL, XAS/XES, NRVS
   Peter Pinski           : DLPNO-MP2, DLPNO-MP2 Gradient
   Christoph Reimann      : Effective Core Potentials
   Marius Retegan         : Local ZFS, SOC
   Christoph Riplinger    : Optimizer, TS searches, QM/MM, DLPNO-CCSD(T), (RO)-DLPNO pert. Triples
   Tobias Risthaus        : Range-separated hybrids, TD-DFT gradient, RPA, STAB
   Michael Roemelt        : Original ROCIS implementation
   Masaaki Saitow         : Open-shell DLPNO-CCSD energy and density
   Barbara Sandhoefer     : DKH picture change effects
   Avijit Sen             : IP-ROCIS
   Kantharuban Sivalingam : CASSCF convergence, NEVPT2, FIC-MRCI
   Bernardo de Souza      : ESD, SOC TD-DFT
   Georgi Stoychev        : AutoAux, RI-MP2 NMR
   Willem Van den Heuvel  : Paramagnetic NMR
   Boris Wezisla          : Elementary symmetry handling
   Frank Wennmohs         : Technical directorship


 We gratefully acknowledge several colleagues who have allowed us to
 interface, adapt or use parts of their codes:
   Stefan Grimme, W. Hujo, H. Kruse,             : VdW corrections, initial TS optimization,
                  C. Bannwarth                     DFT functionals, gCP, sTDA/sTD-DF
   Ed Valeev, F. Pavosevic, A. Kumar             : LibInt (2-el integral package), F12 methods
   Garnet Chan, S. Sharma, J. Yang, R. Olivares  : DMRG
   Ulf Ekstrom                                   : XCFun DFT Library
   Mihaly Kallay                                 : mrcc  (arbitrary order and MRCC methods)
   Andreas Klamt, Michael Diedenhofen            : otool_cosmo (COSMO solvation model)
   Jiri Pittner, Ondrej Demel                    : Mk-CCSD
   Frank Weinhold                                : gennbo (NPA and NBO analysis)
   Christopher J. Cramer and Donald G. Truhlar   : smd solvation model
   Lars Goerigk                                  : TD-DFT with DH, B97 family of functionals
   V. Asgeirsson, H. Jonsson                     : NEB implementation
   FAccTs GmbH                                   : IRC, NEB, NEB-TS, Multilevel, MM, QM/MM, CI optimization
   S Lehtola, MJT Oliveira, MAL Marques          : LibXC Library


 Your calculation uses the libint2 library for the computation of 2-el integrals
 For citations please refer to: http://libint.valeyev.net

 Your ORCA version has been built with support for libXC version: 4.2.3
 For citations please refer to: https://tddft.org/programs/libxc/

 This ORCA versions uses:
   CBLAS   interface :  Fast vector & matrix operations
   LAPACKE interface :  Fast linear algebra routines
   SCALAPACK package :  Parallel linear algebra routines


Your calculation utilizes the DFT-NL dispersion correction.
Cite in your paper:
Vydrov, O. A.; Van Voorhis, T. J. Chem. Phys. 2010, 133, 244103
Hujo, W.; Grimme, S. J. Chem. Theory Comput. 2011, 7, 3866 
   

----- Orbital basis set information -----
Your calculation utilizes the basis: def2-TZVPPD
   F. Weigend and R. Ahlrichs, Phys. Chem. Chem. Phys. 7, 3297 (2005).
   D. Rappoport and F. Furche, J. Chem. Phys. 133 134105 (2010).

----- AuxJK basis set information -----
Your calculation utilizes the auxiliary basis: def2/JK
   H-Ba, Hf-Rn: F. Weigend, J. Comput. Chem. 29, 167 (2008).

cite the ECPs for Au [Def2-ECP] as follows:
Ce-Yb(ecp-28): M. Dolg, H. Stoll, H.Preuss, J. Chem. Phys., 1989, 90, 1730-1734.
Y-Cd(ecp-28), Hf-Hg(ecp-46): D. Andrae,U. Haeussermann, M. Dolg, H. Stoll, H. Preuss, Theor. Chim. Acta, 1990, 77, 123-141.
In-Sb(ecp-28), Tl-Bi(ecp-46): B. Metz, H. Stoll, M. Dolg, J. Chem. Phys., 2000, 113, 2563-2569.
Te-Xe(ecp-28), Po-Rn(ecp-46): K. A. Peterson, D. Figgen, E. Goll, H. Stoll, M. Dolg, J. Chem. Phys., 2003, 119, 11113-11123.
Rb(ecp-28), Cs(ecp-46): T. Leininger, A. Nicklass, W. Kuechle, H. Stoll, M. Dolg, A. Bergner, Chem. Phys. Lett., 1996, 255, 274-280.
Sr(ecp-28), Ba(ecp-46): M. Kaupp, P. V. Schleyer, H. Stoll and H. Preuss, J. Chem. Phys., 1991, 94, 1360-1366.
La(ecp-46): M. Dolg, H. Stoll, A. Savin, H. Preuss, Theor. Chim. Acta, 1989, 75, 173-194.
Lu(ecp-28): X. Cao, M. Dolg, J. Chem. Phys., 2001, 115, 7348-7355.

ECP parameters for Au [Def2-ECP] have been obtained from:
TURBOMOLE (7.0.2)

================================================================================
                                        WARNINGS
                       Please study these warnings very carefully!
================================================================================


WARNING: your system is open-shell and RHF/RKS was chosen
  ===> : WILL SWITCH to UHF/UKS


INFO   : the flag for use of LIBINT has been found!

================================================================================
                                       INPUT FILE
================================================================================
NAME = Au04C2_H_F.in
|  1> #
|  2> # Au04C2_H_F wB97X-V/Def2-TZVPPD
|  3> #
|  4> ! wb97x-v def2-tzvppd def2/jk grid4 nofinalgrid
|  5> 
|  6> *xyz 2 2
|  7> Au       0.000000    1.567068   -0.568281 
|  8> Au       1.357120   -0.783534   -0.568281 
|  9> Au      -1.357120   -0.783534   -0.568281 
| 10> Au       0.000000    0.000000    1.725922 
| 11> H        0.000000    0.000000   -1.665144 
| 12> *
| 13> 
| 14> %maxcore 5000
| 15> 
| 16> %pal
| 17> nprocs = 24
| 18> end
| 19> 
| 20> 
| 21>                          ****END OF INPUT****
================================================================================

                       ****************************
                       * Single Point Calculation *
                       ****************************

---------------------------------
CARTESIAN COORDINATES (ANGSTROEM)
---------------------------------
  Au     0.000000    1.567068   -0.568281
  Au     1.357120   -0.783534   -0.568281
  Au    -1.357120   -0.783534   -0.568281
  Au     0.000000    0.000000    1.725922
  H      0.000000    0.000000   -1.665144

----------------------------
CARTESIAN COORDINATES (A.U.)
----------------------------
  NO LB      ZA    FRAG     MASS         X           Y           Z
   0 Au   19.0000*   0   196.966    0.000000    2.961329   -1.073895
   1 Au   19.0000*   0   196.966    2.564585   -1.480665   -1.073895
   2 Au   19.0000*   0   196.966   -2.564585   -1.480665   -1.073895
   3 Au   19.0000*   0   196.966    0.000000    0.000000    3.261520
   4 H     1.0000    0     1.008    0.000000    0.000000   -3.146666
* core charge reduced due to ECP

--------------------------------
INTERNAL COORDINATES (ANGSTROEM)
--------------------------------
 Au     0   0   0     0.000000000000     0.00000000     0.00000000
 Au     1   0   0     2.714241046187     0.00000000     0.00000000
 Au     2   1   0     2.714240000000    60.00001275     0.00000000
 Au     2   1   3     2.778321008949    60.76008000   288.85645343
 H      2   1   3     1.912801261063    44.80627518    54.46024256

---------------------------
INTERNAL COORDINATES (A.U.)
---------------------------
 Au     0   0   0     0.000000000000     0.00000000     0.00000000
 Au     1   0   0     5.129172238741     0.00000000     0.00000000
 Au     2   1   0     5.129170261734    60.00001275     0.00000000
 Au     2   1   3     5.250265819033    60.76008000   288.85645343
 H      2   1   3     3.614670532029    44.80627518    54.46024256

---------------------
BASIS SET INFORMATION
---------------------
There are 2 groups of distinct atoms

 Group   1 Type Au  : 8s8p6d2f1g contracted to 6s5p3d2f1g pattern {311111/41111/411/11/1}
 Group   2 Type H   : 5s3p1d contracted to 3s3p1d pattern {311/111/1}

Atom   0Au   basis set group =>   1
Atom   1Au   basis set group =>   1
Atom   2Au   basis set group =>   1
Atom   3Au   basis set group =>   1
Atom   4H    basis set group =>   2
----------------------------------
AUXILIARY/JK BASIS SET INFORMATION
----------------------------------
There are 2 groups of distinct atoms

 Group   1 Type Au  : 13s12p11d9f5g3h2i contracted to 13s11p10d8f4g3h2i pattern {1111111111111/21111111111/2111111111/21111111/2111/111/11}
 Group   2 Type H   : 4s2p2d contracted to 2s2p2d pattern {31/11/11}

Atom   0Au   basis set group =>   1
Atom   1Au   basis set group =>   1
Atom   2Au   basis set group =>   1
Atom   3Au   basis set group =>   1
Atom   4H    basis set group =>   2
-------------------------
ECP PARAMETER INFORMATION
-------------------------

 Group 1, Type Au ECP Def2-ECP (replacing 60 core electrons, lmax=3)

Atom   0Au   ECP group =>   1
Atom   1Au   ECP group =>   1
Atom   2Au   ECP group =>   1
Atom   3Au   ECP group =>   1



           ************************************************************
           *        Program running with 24 parallel MPI-processes    *
           *              working on a common directory               *
           ************************************************************
------------------------------------------------------------------------------
                           ORCA GTO INTEGRAL CALCULATION
------------------------------------------------------------------------------

                         BASIS SET STATISTICS AND STARTUP INFO

 # of primitive gaussian shells          ...  109
 # of primitive gaussian functions       ...  359
 # of contracted shells                  ...   75
 # of contracted basis functions         ...  253
 Highest angular momentum                ...    4
 Maximum contraction depth               ...    4
 Integral package used                   ... LIBINT
 Integral threshhold            Thresh   ...  1.000e-10
 Primitive cut-off              TCut     ...  1.000e-11


------------------------------ INTEGRAL EVALUATION ----------------------------


 * One electron integrals 

   ECP integrals                         ... done
 Pre-screening matrix                    ... done
 Shell pair data                         ... done (   0.001 sec)



           ************************************************************
           *        Program running with 24 parallel MPI-processes    *
           *              working on a common directory               *
           ************************************************************
-------------------------------------------------------------------------------
                                 ORCA SCF
-------------------------------------------------------------------------------

------------
SCF SETTINGS
------------
Hamiltonian:
 Density Functional     Method          .... DFT(GTOs)
 Exchange Functional    Exchange        .... WB97X-V
 Correlation Functional Correlation     .... WB97X-V
 Gradients option       PostSCFGGA      .... off
 Hybrid DFT is turned on
   Fraction HF Exchange ScalHFX         ....  0.167000
   Scaling of DF-GGA-X  ScalDFX         ....  0.000000
   Scaling of DF-GGA-C  ScalDFC         ....  1.000000
   Scaling of DF-LDA-C  ScalLDAC        ....  1.000000
   Perturbative correction              ....  0.000000
   Density functional embedding theory  .... OFF
 Long-range corrected/Screened/Range-Separated Hybrid DFT is turned on
   Amount of maximum screened exact exchange              ....  0.833000
   Range separation parameter mu (erf(mu*r12)/r12)        ....  0.300000
   NL short-range parameter             ....  6.000000
   NL long-range parameter              ....  0.010000


General Settings:
 Integral files         IntName         .... Au04C2_H_F
 Hartree-Fock type      HFTyp           .... UHF
 Total Charge           Charge          ....    2
 Multiplicity           Mult            ....    2
 Number of Electrons    NEL             ....   75
 Basis Dimension        Dim             ....  253
 Nuclear Repulsion      ENuc            ....    436.1544979593 Eh

Convergence Acceleration:
 DIIS                   CNVDIIS         .... on
   Start iteration      DIISMaxIt       ....    12
   Startup error        DIISStart       ....  0.200000
   # of expansion vecs  DIISMaxEq       ....     5
   Bias factor          DIISBfac        ....   1.050
   Max. coefficient     DIISMaxC        ....  10.000
 Newton-Raphson         CNVNR           .... off
 SOSCF                  CNVSOSCF        .... off
 Level Shifting         CNVShift        .... on
   Level shift para.    LevelShift      ....    0.2500
   Turn off err/grad.   ShiftErr        ....    0.0010
 Zerner damping         CNVZerner       .... off
 Static damping         CNVDamp         .... on
   Fraction old density DampFac         ....    0.7000
   Max. Damping (<1)    DampMax         ....    0.9800
   Min. Damping (>=0)   DampMin         ....    0.0000
   Turn off err/grad.   DampErr         ....    0.1000
 Fernandez-Rico         CNVRico         .... off

SCF Procedure:
 Maximum # iterations   MaxIter         ....   125
 SCF integral mode      SCFMode         .... Direct
   Integral package                     .... LIBINT
 Reset frequency        DirectResetFreq ....    20
 Integral Threshold     Thresh          ....  1.000e-10 Eh
 Primitive CutOff       TCut            ....  1.000e-11 Eh

Convergence Tolerance:
 Convergence Check Mode ConvCheckMode   .... Total+1el-Energy
 Convergence forced     ConvForced      .... 0
 Energy Change          TolE            ....  1.000e-06 Eh
 1-El. energy change                    ....  1.000e-03 Eh
 DIIS Error             TolErr          ....  1.000e-06


Diagonalization of the overlap matrix:
Smallest eigenvalue                        ... 9.342e-04
Time for diagonalization                   ...    0.011 sec
Threshold for overlap eigenvalues          ... 1.000e-08
Number of eigenvalues below threshold      ... 0
Time for construction of square roots      ...    0.008 sec
Total time needed                          ...    0.019 sec

-------------------
DFT GRID GENERATION
-------------------

General Integration Accuracy     IntAcc      ...  4.670
Radial Grid Type                 RadialGrid  ... Gauss-Chebyshev
Angular Grid (max. acc.)         AngularGrid ... Lebedev-302
Angular grid pruning method      GridPruning ... 3 (G Style)
Weight generation scheme         WeightScheme... Becke
Basis function cutoff            BFCut       ...    1.0000e-10
Integration weight cutoff        WCut        ...    1.0000e-14
Grids for H and He will be reduced by one unit

# of grid points (after initial pruning)     ...  50002 (   0.0 sec)
# of grid points (after weights+screening)   ...  48863 (   0.0 sec)
nearest neighbour list constructed           ...    0.0 sec
Grid point re-assignment to atoms done       ...    0.0 sec
Grid point division into batches done        ...    0.4 sec
Reduced shell lists constructed in    0.4 sec

Total number of grid points                  ...    48863
Total number of batches                      ...      766
Average number of points per batch           ...       63
Average number of grid points per atom       ...     9773
Average number of shells per batch           ...    13.88 (18.51%)
Average number of basis functions per batch  ...    38.79 (15.33%)
Average number of large shells per batch     ...     9.42 (67.90%)
Average number of large basis fcns per batch ...    24.45 (63.05%)
Maximum spatial batch extension              ...  27.71, 26.50, 27.27 au
Average spatial batch extension              ...   0.50,  0.43,  0.48 au

Time for grid setup =    0.450 sec

------------------------------
INITIAL GUESS: MODEL POTENTIAL
------------------------------
Loading Hartree-Fock densities                     ... done
  calling /sw/apps/orca/orca_4_2_0_linux_x86-64_openmpi314/orca Au04C2_H_F_atom79.inp > Au04C2_H_F_atom79.out in order to generate an atomic fitting density for atom 0 (Au with ECP) on-the-fly... 
    atom 0 (Au), assumed electronic state with S=2: 1s2 2s2 2p6 3s2 3p6 4s2 3d10 4p6 5s2 4d10 5p6 6s1 4f14 5d10           ... done
Calculating cut-offs                               ... done
Setting up the integral package                    ... done
Initializing the effective Hamiltonian             ... done
Starting the Coulomb interaction                   ... done (   0.0 sec)
Reading the grid                                   ... done
Mapping shells                                     ... done
Starting the XC term evaluation                    ... done (   0.0 sec)
  promolecular density results
     # of electrons  =    317.008731720
     EX              =  -1171.508631776
     EC              =    -25.076252827
     EX+EC           =  -1196.584884603
Transforming the Hamiltonian                       ... done (   0.0 sec)
Diagonalizing the Hamiltonian                      ... done (   0.0 sec)
Back transforming the eigenvectors                 ... done (   0.0 sec)
Now organizing SCF variables                       ... done
                      ------------------
                      INITIAL GUESS DONE (   1.5 sec)
                      ------------------
--------------
SCF ITERATIONS
--------------
ITER       Energy         Delta-E        Max-DP      RMS-DP      [F,P]     Damp
               ***  Starting incremental Fock matrix formation  ***
  0   -541.8903496030   0.000000000000 0.04731659  0.00119972  0.4586859 0.7000
  1   -542.2780091199  -0.387659516873 0.05204617  0.00095582  0.3395504 0.7000
  2   -542.4936277717  -0.215618651776 0.04699795  0.00070048  0.2491502 0.7000
                               ***Turning on DIIS***
  3   -542.6296345478  -0.136006776092 0.03964272  0.00053642  0.1801833 0.7000
  4   -542.7248461773  -0.095211629541 0.03510387  0.00047303  0.1286769 0.7000
  5   -542.7937661575  -0.068919980132 0.08583182  0.00126918  0.0893909 0.0000
  6   -542.9703686337  -0.176602476250 0.01605046  0.00020756  0.0077102 0.0000
  7   -542.9736537388  -0.003285105061 0.01655324  0.00018669  0.0053714 0.0000
  8   -542.9754593841  -0.001805645355 0.01328623  0.00013397  0.0044813 0.0000
  9   -542.9764161903  -0.000956806217 0.00860894  0.00008447  0.0030490 0.0000
 10   -542.9767789801  -0.000362789749 0.00611741  0.00005731  0.0021571 0.0000
 11   -542.9769406833  -0.000161703242 0.00446605  0.00004070  0.0015164 0.0000
 12   -542.9770187346  -0.000078051288 0.00366363  0.00003209  0.0010372 0.0000
 13   -542.9770587644  -0.000040029824 0.00404179  0.00003800  0.0006239 0.0000
 14   -542.9770821600  -0.000023395606 0.00080071  0.00000810  0.0001721 0.0000
 15   -542.9770839931  -0.000001833098 0.00032927  0.00000307  0.0001398 0.0000
                 **** Energy Check signals convergence ****

               *****************************************************
               *                     SUCCESS                       *
               *           SCF CONVERGED AFTER  16 CYCLES          *
               *****************************************************


Setting up the DFT-NL grid :

General Integration Accuracy     IntAcc      ...  4.340
Radial Grid Type                 RadialGrid  ... Gauss-Chebyshev
Angular Grid (max. acc.)         AngularGrid ... Lebedev-110
Angular grid pruning method      GridPruning ... 3 (G Style)
Weight generation scheme         WeightScheme... Becke
Basis function cutoff            BFCut       ...    1.0000e-10
Integration weight cutoff        WCut        ...    1.0000e-14
Grids for H and He will be reduced by one unit

# of grid points (after initial pruning)     ...  14914 (   0.0 sec)
# of grid points (after weights+screening)   ...  14649 (   0.0 sec)
nearest neighbour list constructed           ...    0.0 sec
Grid point re-assignment to atoms done       ...    0.0 sec
Grid point division into batches done        ...    0.0 sec
Reduced shell lists constructed in    0.0 sec

Total number of grid points                  ...    14649
Total number of batches                      ...      231
Average number of points per batch           ...       63
Average number of grid points per atom       ...     2930
Average number of shells per batch           ...    22.18 (29.58%)
Average number of basis functions per batch  ...    65.64 (25.94%)
Average number of large shells per batch     ...    15.27 (68.85%)
Average number of large basis fcns per batch ...    46.55 (70.91%)
Maximum spatial batch extension              ...  42.99, 21.07, 31.53 au
Average spatial batch extension              ...   0.76,  0.53,  0.65 au

Final grid set up in    0.0 sec

-------------------------------------------------------------------------------
                         DFT-NL dispersion correction                          
-------------------------------------------------------------------------------

SC Energy -542.977084351 
NL    Energy 0.273250153 
SC+NL Energy -542.703834198 
NL done in    0.0 sec
-------------------------------------------------------------------------------

----------------
TOTAL SCF ENERGY
----------------

Total Energy       :         -542.70383420 Eh          -14767.72211 eV

Components:
Nuclear Repulsion  :          436.15449796 Eh           11868.36727 eV
Electronic Energy  :         -978.85833216 Eh          -26636.08937 eV
One Electron Energy:        -1797.05291942 Eh          -48900.29598 eV
Two Electron Energy:          818.19458726 Eh           22264.20661 eV

Virial components:
Potential Energy   :         -727.09740442 Eh          -19785.32624 eV
Kinetic Energy     :          184.39357022 Eh            5017.60414 eV
Virial Ratio       :            3.94318199


DFT components:
N(Alpha)           :       37.999985406593 electrons
N(Beta)            :       36.999985949095 electrons
N(Total)           :       74.999971355689 electrons
E(X)               :      -30.353124703175 Eh       
E(C)               :       -3.463376230159 Eh       
NL Energy, E(C,NL) :        0.273250152613 Eh       
E(XC)              :      -33.543250780721 Eh       
DFET-embed. en.    :        0.000000000000 Eh       

---------------
SCF CONVERGENCE
---------------

  Last Energy change         ...   -3.5749e-07  Tolerance :   1.0000e-06
  Last MAX-Density change    ...    1.6683e-04  Tolerance :   1.0000e-05
  Last RMS-Density change    ...    2.0838e-06  Tolerance :   1.0000e-06
  Last DIIS Error            ...    5.6613e-05  Tolerance :   1.0000e-06

             **** THE GBW FILE WAS UPDATED (Au04C2_H_F.gbw) ****
             **** DENSITY FILE WAS UPDATED (Au04C2_H_F.scfp) ****
             **** ENERGY FILE WAS UPDATED (Au04C2_H_F.en.tmp) ****
----------------------
UHF SPIN CONTAMINATION
----------------------

Warning: in a DFT calculation there is little theoretical justification to 
         calculate <S**2> as in Hartree-Fock theory. We will do it anyways
         but you should keep in mind that the values have only limited relevance

Expectation value of <S**2>     :     0.759306
Ideal value S*(S+1) for S=0.5   :     0.750000
Deviation                       :     0.009306

             **** THE GBW FILE WAS UPDATED (Au04C2_H_F.gbw) ****
             **** DENSITY FILE WAS UPDATED (Au04C2_H_F.scfp) ****
----------------
ORBITAL ENERGIES
----------------
                 SPIN UP ORBITALS
  NO   OCC          E(Eh)            E(eV) 
   0   1.0000      -4.663536      -126.9013 
   1   1.0000      -4.663271      -126.8941 
   2   1.0000      -4.663270      -126.8940 
   3   1.0000      -4.624192      -125.8307 
   4   1.0000      -2.854744       -77.6815 
   5   1.0000      -2.849415       -77.5365 
   6   1.0000      -2.849414       -77.5365 
   7   1.0000      -2.843908       -77.3867 
   8   1.0000      -2.843276       -77.3695 
   9   1.0000      -2.843273       -77.3694 
  10   1.0000      -2.841961       -77.3337 
  11   1.0000      -2.841956       -77.3336 
  12   1.0000      -2.840349       -77.2898 
  13   1.0000      -2.809097       -76.4394 
  14   1.0000      -2.803153       -76.2777 
  15   1.0000      -2.803152       -76.2776 
  16   1.0000      -0.988548       -26.8998 
  17   1.0000      -0.906839       -24.6763 
  18   1.0000      -0.867034       -23.5932 
  19   1.0000      -0.867033       -23.5932 
  20   1.0000      -0.848100       -23.0780 
  21   1.0000      -0.848098       -23.0779 
  22   1.0000      -0.843078       -22.9413 
  23   1.0000      -0.822854       -22.3910 
  24   1.0000      -0.822854       -22.3910 
  25   1.0000      -0.815157       -22.1816 
  26   1.0000      -0.801619       -21.8132 
  27   1.0000      -0.801614       -21.8130 
  28   1.0000      -0.795650       -21.6508 
  29   1.0000      -0.795650       -21.6507 
  30   1.0000      -0.794778       -21.6270 
  31   1.0000      -0.768642       -20.9158 
  32   1.0000      -0.768635       -20.9156 
  33   1.0000      -0.765099       -20.8194 
  34   1.0000      -0.760969       -20.7070 
  35   1.0000      -0.748817       -20.3763 
  36   1.0000      -0.748813       -20.3762 
  37   1.0000      -0.639315       -17.3966 
  38   0.0000      -0.413924       -11.2635 
  39   0.0000      -0.413924       -11.2634 
  40   0.0000      -0.340236        -9.2583 
  41   0.0000      -0.275182        -7.4881 
  42   0.0000      -0.260649        -7.0926 
  43   0.0000      -0.260648        -7.0926 
  44   0.0000      -0.251286        -6.8378 
  45   0.0000      -0.251285        -6.8378 
  46   0.0000      -0.155411        -4.2289 
  47   0.0000      -0.145955        -3.9716 
  48   0.0000      -0.145953        -3.9716 
  49   0.0000      -0.128505        -3.4968 
  50   0.0000      -0.127122        -3.4592 
  51   0.0000      -0.127122        -3.4592 
  52   0.0000      -0.126080        -3.4308 
  53   0.0000      -0.086923        -2.3653 
  54   0.0000      -0.072402        -1.9702 
  55   0.0000      -0.055392        -1.5073 
  56   0.0000      -0.055391        -1.5073 
  57   0.0000      -0.047534        -1.2935 
  58   0.0000      -0.047534        -1.2935 
  59   0.0000      -0.025892        -0.7045 
  60   0.0000       0.013201         0.3592 
  61   0.0000       0.013202         0.3593 
  62   0.0000       0.022967         0.6250 
  63   0.0000       0.022970         0.6251 
  64   0.0000       0.024747         0.6734 
  65   0.0000       0.050821         1.3829 
  66   0.0000       0.050822         1.3829 
  67   0.0000       0.053476         1.4552 
  68   0.0000       0.066921         1.8210 
  69   0.0000       0.081753         2.2246 
  70   0.0000       0.094398         2.5687 
  71   0.0000       0.094401         2.5688 
  72   0.0000       0.115946         3.1550 
  73   0.0000       0.115946         3.1551 
  74   0.0000       0.144634         3.9357 
  75   0.0000       0.144634         3.9357 
  76   0.0000       0.158400         4.3103 
  77   0.0000       0.174728         4.7546 
  78   0.0000       0.211638         5.7590 
  79   0.0000       0.240439         6.5427 
  80   0.0000       0.240441         6.5427 
  81   0.0000       0.241286         6.5657 
  82   0.0000       0.241286         6.5657 
  83   0.0000       0.242220         6.5911 
  84   0.0000       0.272592         7.4176 
  85   0.0000       0.272593         7.4176 
  86   0.0000       0.291969         7.9449 
  87   0.0000       0.291981         7.9452 
  88   0.0000       0.292801         7.9675 
  89   0.0000       0.310520         8.4497 
  90   0.0000       0.319505         8.6942 
  91   0.0000       0.319505         8.6942 
  92   0.0000       0.373179        10.1547 
  93   0.0000       0.566823        15.4240 
  94   0.0000       0.566832        15.4243 
  95   0.0000       0.605938        16.4884 
  96   0.0000       0.611751        16.6466 
  97   0.0000       0.661949        18.0125 
  98   0.0000       0.661956        18.0128 
  99   0.0000       0.714809        19.4510 
 100   0.0000       0.714810        19.4510 
 101   0.0000       0.754841        20.5403 
 102   0.0000       0.759081        20.6556 
 103   0.0000       0.759083        20.6557 
 104   0.0000       0.807402        21.9705 
 105   0.0000       0.830151        22.5895 
 106   0.0000       0.830151        22.5896 
 107   0.0000       0.835838        22.7443 
 108   0.0000       0.846201        23.0263 
 109   0.0000       0.846206        23.0264 
 110   0.0000       0.899085        24.4654 
 111   0.0000       0.899088        24.4654 
 112   0.0000       0.916732        24.9455 
 113   0.0000       0.917181        24.9578 
 114   0.0000       0.927849        25.2481 
 115   0.0000       0.929792        25.3009 
 116   0.0000       0.929793        25.3009 
 117   0.0000       0.937307        25.5054 
 118   0.0000       0.991380        26.9768 
 119   0.0000       0.991389        26.9771 
 120   0.0000       1.009364        27.4662 
 121   0.0000       1.025847        27.9147 
 122   0.0000       1.025848        27.9148 
 123   0.0000       1.033970        28.1358 
 124   0.0000       1.081704        29.4347 
 125   0.0000       1.081711        29.4349 
 126   0.0000       1.106630        30.1129 
 127   0.0000       1.118055        30.4238 
 128   0.0000       1.118065        30.4241 
 129   0.0000       1.127992        30.6942 
 130   0.0000       1.172939        31.9173 
 131   0.0000       1.174255        31.9531 
 132   0.0000       1.179084        32.0845 
 133   0.0000       1.179090        32.0847 
 134   0.0000       1.190637        32.3989 
 135   0.0000       1.190645        32.3991 
 136   0.0000       1.236263        33.6404 
 137   0.0000       1.236275        33.6408 
 138   0.0000       1.243772        33.8448 
 139   0.0000       1.243789        33.8452 
 140   0.0000       1.278450        34.7884 
 141   0.0000       1.285507        34.9804 
 142   0.0000       1.285522        34.9808 
 143   0.0000       1.292146        35.1611 
 144   0.0000       1.340313        36.4718 
 145   0.0000       1.340322        36.4720 
 146   0.0000       1.382219        37.6121 
 147   0.0000       1.446963        39.3739 
 148   0.0000       1.446963        39.3739 
 149   0.0000       1.488259        40.4976 
 150   0.0000       1.537721        41.8435 
 151   0.0000       1.537736        41.8439 
 152   0.0000       1.592354        43.3302 
 153   0.0000       1.660442        45.1829 
 154   0.0000       1.660444        45.1830 
 155   0.0000       1.689659        45.9780 
 156   0.0000       2.147295        58.4309 
 157   0.0000       2.474653        67.3387 
 158   0.0000       2.552557        69.4586 
 159   0.0000       2.552576        69.4591 
 160   0.0000       2.818009        76.6819 
 161   0.0000       2.879330        78.3505 
 162   0.0000       2.879350        78.3511 
 163   0.0000       2.921075        79.4865 
 164   0.0000       3.152793        85.7919 
 165   0.0000       3.152821        85.7926 
 166   0.0000       3.161828        86.0377 
 167   0.0000       3.208901        87.3186 
 168   0.0000       3.208974        87.3206 
 169   0.0000       3.295221        89.6675 
 170   0.0000       3.310130        90.0732 
 171   0.0000       3.310158        90.0740 
 172   0.0000       3.313901        90.1758 
 173   0.0000       3.377361        91.9027 
 174   0.0000       3.378982        91.9468 
 175   0.0000       3.379075        91.9493 
 176   0.0000       3.406342        92.6913 
 177   0.0000       3.445592        93.7593 
 178   0.0000       3.445643        93.7607 
 179   0.0000       3.457286        94.0775 
 180   0.0000       3.483038        94.7783 
 181   0.0000       3.494359        95.0864 
 182   0.0000       3.494482        95.0897 
 183   0.0000       3.532690        96.1294 
 184   0.0000       3.532697        96.1296 
 185   0.0000       3.573493        97.2397 
 186   0.0000       3.573571        97.2418 
 187   0.0000       3.576211        97.3137 
 188   0.0000       3.603361        98.0525 
 189   0.0000       3.607917        98.1764 
 190   0.0000       3.608029        98.1795 
 191   0.0000       3.674875        99.9984 
 192   0.0000       3.697925       100.6257 
 193   0.0000       3.697973       100.6270 
 194   0.0000       3.712313       101.0172 
 195   0.0000       3.712605       101.0251 
 196   0.0000       3.747320       101.9698 
 197   0.0000       3.826660       104.1287 
 198   0.0000       3.826677       104.1292 
 199   0.0000       3.829619       104.2092 
 200   0.0000       3.831149       104.2509 
 201   0.0000       3.832703       104.2932 
 202   0.0000       3.832713       104.2934 
 203   0.0000       3.833935       104.3267 
 204   0.0000       3.838660       104.4553 
 205   0.0000       3.838934       104.4627 
 206   0.0000       3.842577       104.5618 
 207   0.0000       3.842737       104.5662 
 208   0.0000       3.844076       104.6026 
 209   0.0000       3.852522       104.8325 
 210   0.0000       3.860234       105.0423 
 211   0.0000       3.860267       105.0432 
 212   0.0000       3.861757       105.0838 
 213   0.0000       3.873035       105.3906 
 214   0.0000       3.873055       105.3912 
 215   0.0000       3.874862       105.4404 
 216   0.0000       3.875093       105.4466 
 217   0.0000       3.875098       105.4468 
 218   0.0000       3.877320       105.5072 
 219   0.0000       3.902170       106.1835 
 220   0.0000       3.902193       106.1841 
 221   0.0000       3.918524       106.6285 
 222   0.0000       3.931814       106.9901 
 223   0.0000       3.931897       106.9924 
 224   0.0000       3.986547       108.4795 
 225   0.0000       3.986594       108.4807 
 226   0.0000       4.026030       109.5538 
 227   0.0000       4.048001       110.1517 
 228   0.0000       4.048050       110.1531 
 229   0.0000       4.096030       111.4586 
 230   0.0000       4.678999       127.3220 
 231   0.0000       4.683932       127.4563 
 232   0.0000       4.684173       127.4628 
 233   0.0000      27.354024       744.3408 
 234   0.0000      27.354049       744.3415 
 235   0.0000      27.589859       750.7582 
 236   0.0000      27.589874       750.7587 
 237   0.0000      28.438815       773.8595 
 238   0.0000      28.444588       774.0166 
 239   0.0000      28.826073       784.3973 
 240   0.0000      28.826084       784.3976 
 241   0.0000      29.128022       792.6138 
 242   0.0000      30.230496       822.6136 
 243   0.0000      30.230511       822.6140 
 244   0.0000      30.407494       827.4300 
 245   0.0000      43.988062      1196.9760 
 246   0.0000      44.326969      1206.1981 
 247   0.0000      44.452570      1209.6159 
 248   0.0000      44.452573      1209.6160 
 249   0.0000     204.953700      5577.0737 
 250   0.0000     205.106308      5581.2264 
 251   0.0000     205.144959      5582.2781 
 252   0.0000     205.144962      5582.2782 

                 SPIN DOWN ORBITALS
  NO   OCC          E(Eh)            E(eV) 
   0   1.0000      -4.661105      -126.8351 
   1   1.0000      -4.660860      -126.8284 
   2   1.0000      -4.660860      -126.8284 
   3   1.0000      -4.622664      -125.7891 
   4   1.0000      -2.850699       -77.5715 
   5   1.0000      -2.845861       -77.4398 
   6   1.0000      -2.845860       -77.4398 
   7   1.0000      -2.841021       -77.3081 
   8   1.0000      -2.841020       -77.3081 
   9   1.0000      -2.839943       -77.2788 
  10   1.0000      -2.839576       -77.2688 
  11   1.0000      -2.839427       -77.2647 
  12   1.0000      -2.839426       -77.2647 
  13   1.0000      -2.807239       -76.3889 
  14   1.0000      -2.801985       -76.2459 
  15   1.0000      -2.801983       -76.2458 
  16   1.0000      -0.968872       -26.3644 
  17   1.0000      -0.899683       -24.4816 
  18   1.0000      -0.866159       -23.5694 
  19   1.0000      -0.866159       -23.5694 
  20   1.0000      -0.843423       -22.9507 
  21   1.0000      -0.843423       -22.9507 
  22   1.0000      -0.835971       -22.7479 
  23   1.0000      -0.820707       -22.3326 
  24   1.0000      -0.820706       -22.3326 
  25   1.0000      -0.804949       -21.9038 
  26   1.0000      -0.795629       -21.6502 
  27   1.0000      -0.795624       -21.6500 
  28   1.0000      -0.793567       -21.5941 
  29   1.0000      -0.789608       -21.4863 
  30   1.0000      -0.789599       -21.4861 
  31   1.0000      -0.765912       -20.8415 
  32   1.0000      -0.765906       -20.8414 
  33   1.0000      -0.759527       -20.6678 
  34   1.0000      -0.759312       -20.6619 
  35   1.0000      -0.742210       -20.1966 
  36   1.0000      -0.742206       -20.1964 
  37   0.0000      -0.431697       -11.7471 
  38   0.0000      -0.410317       -11.1653 
  39   0.0000      -0.410317       -11.1653 
  40   0.0000      -0.318232        -8.6595 
  41   0.0000      -0.263960        -7.1827 
  42   0.0000      -0.257720        -7.0129 
  43   0.0000      -0.257720        -7.0129 
  44   0.0000      -0.242214        -6.5910 
  45   0.0000      -0.242213        -6.5910 
  46   0.0000      -0.147130        -4.0036 
  47   0.0000      -0.144731        -3.9383 
  48   0.0000      -0.144730        -3.9383 
  49   0.0000      -0.125775        -3.4225 
  50   0.0000      -0.124052        -3.3756 
  51   0.0000      -0.124052        -3.3756 
  52   0.0000      -0.120418        -3.2768 
  53   0.0000      -0.083728        -2.2784 
  54   0.0000      -0.068291        -1.8583 
  55   0.0000      -0.052724        -1.4347 
  56   0.0000      -0.052723        -1.4347 
  57   0.0000      -0.043394        -1.1808 
  58   0.0000      -0.043392        -1.1808 
  59   0.0000      -0.023003        -0.6260 
  60   0.0000       0.012991         0.3535 
  61   0.0000       0.012993         0.3536 
  62   0.0000       0.024294         0.6611 
  63   0.0000       0.024295         0.6611 
  64   0.0000       0.028395         0.7727 
  65   0.0000       0.053926         1.4674 
  66   0.0000       0.054146         1.4734 
  67   0.0000       0.054147         1.4734 
  68   0.0000       0.075826         2.0633 
  69   0.0000       0.085686         2.3316 
  70   0.0000       0.094563         2.5732 
  71   0.0000       0.094565         2.5732 
  72   0.0000       0.115140         3.1331 
  73   0.0000       0.115142         3.1332 
  74   0.0000       0.143858         3.9146 
  75   0.0000       0.143858         3.9146 
  76   0.0000       0.157552         4.2872 
  77   0.0000       0.175632         4.7792 
  78   0.0000       0.213757         5.8166 
  79   0.0000       0.240157         6.5350 
  80   0.0000       0.240159         6.5351 
  81   0.0000       0.241459         6.5704 
  82   0.0000       0.241462         6.5705 
  83   0.0000       0.243428         6.6240 
  84   0.0000       0.272843         7.4244 
  85   0.0000       0.272844         7.4245 
  86   0.0000       0.292725         7.9655 
  87   0.0000       0.292729         7.9656 
  88   0.0000       0.295283         8.0351 
  89   0.0000       0.310474         8.4484 
  90   0.0000       0.320862         8.7311 
  91   0.0000       0.320863         8.7311 
  92   0.0000       0.376098        10.2341 
  93   0.0000       0.571652        15.5554 
  94   0.0000       0.571661        15.5557 
  95   0.0000       0.606743        16.5103 
  96   0.0000       0.619207        16.8495 
  97   0.0000       0.663550        18.0561 
  98   0.0000       0.663554        18.0562 
  99   0.0000       0.718023        19.5384 
 100   0.0000       0.718023        19.5384 
 101   0.0000       0.757518        20.6131 
 102   0.0000       0.762117        20.7383 
 103   0.0000       0.762122        20.7384 
 104   0.0000       0.809682        22.0326 
 105   0.0000       0.832592        22.6560 
 106   0.0000       0.832592        22.6560 
 107   0.0000       0.840987        22.8844 
 108   0.0000       0.847141        23.0519 
 109   0.0000       0.847145        23.0520 
 110   0.0000       0.902102        24.5475 
 111   0.0000       0.902103        24.5475 
 112   0.0000       0.918235        24.9864 
 113   0.0000       0.922761        25.1096 
 114   0.0000       0.930034        25.3075 
 115   0.0000       0.931927        25.3590 
 116   0.0000       0.931929        25.3591 
 117   0.0000       0.942234        25.6395 
 118   0.0000       0.993923        27.0460 
 119   0.0000       0.993929        27.0462 
 120   0.0000       1.015425        27.6311 
 121   0.0000       1.028679        27.9918 
 122   0.0000       1.028684        27.9919 
 123   0.0000       1.036763        28.2118 
 124   0.0000       1.085946        29.5501 
 125   0.0000       1.085950        29.5502 
 126   0.0000       1.109090        30.1799 
 127   0.0000       1.119189        30.4547 
 128   0.0000       1.119194        30.4548 
 129   0.0000       1.134676        30.8761 
 130   0.0000       1.174651        31.9639 
 131   0.0000       1.176889        32.0248 
 132   0.0000       1.182589        32.1799 
 133   0.0000       1.182592        32.1800 
 134   0.0000       1.195310        32.5260 
 135   0.0000       1.195318        32.5262 
 136   0.0000       1.238045        33.6889 
 137   0.0000       1.238060        33.6893 
 138   0.0000       1.246127        33.9088 
 139   0.0000       1.246140        33.9092 
 140   0.0000       1.281438        34.8697 
 141   0.0000       1.288265        35.0555 
 142   0.0000       1.288282        35.0559 
 143   0.0000       1.293052        35.1857 
 144   0.0000       1.343657        36.5628 
 145   0.0000       1.343658        36.5628 
 146   0.0000       1.389045        37.7978 
 147   0.0000       1.448986        39.4289 
 148   0.0000       1.448995        39.4292 
 149   0.0000       1.491324        40.5810 
 150   0.0000       1.540675        41.9239 
 151   0.0000       1.540682        41.9241 
 152   0.0000       1.600287        43.5460 
 153   0.0000       1.663937        45.2780 
 154   0.0000       1.663942        45.2782 
 155   0.0000       1.689836        45.9828 
 156   0.0000       2.150350        58.5140 
 157   0.0000       2.477904        67.4272 
 158   0.0000       2.554570        69.5134 
 159   0.0000       2.554581        69.5137 
 160   0.0000       2.843840        77.3848 
 161   0.0000       2.890705        78.6601 
 162   0.0000       2.890730        78.6608 
 163   0.0000       2.934564        79.8535 
 164   0.0000       3.163346        86.0790 
 165   0.0000       3.163604        86.0860 
 166   0.0000       3.163626        86.0866 
 167   0.0000       3.211613        87.3924 
 168   0.0000       3.211684        87.3944 
 169   0.0000       3.296686        89.7074 
 170   0.0000       3.311946        90.1226 
 171   0.0000       3.311975        90.1234 
 172   0.0000       3.316006        90.2331 
 173   0.0000       3.379047        91.9485 
 174   0.0000       3.381194        92.0070 
 175   0.0000       3.381287        92.0095 
 176   0.0000       3.409605        92.7801 
 177   0.0000       3.449312        93.8605 
 178   0.0000       3.449364        93.8620 
 179   0.0000       3.460263        94.1585 
 180   0.0000       3.485969        94.8580 
 181   0.0000       3.496241        95.1376 
 182   0.0000       3.496365        95.1409 
 183   0.0000       3.536043        96.2206 
 184   0.0000       3.536054        96.2209 
 185   0.0000       3.575810        97.3027 
 186   0.0000       3.575904        97.3053 
 187   0.0000       3.582025        97.4719 
 188   0.0000       3.607615        98.1682 
 189   0.0000       3.612670        98.3057 
 190   0.0000       3.612798        98.3092 
 191   0.0000       3.676121       100.0323 
 192   0.0000       3.711629       100.9985 
 193   0.0000       3.711671       100.9997 
 194   0.0000       3.717205       101.1503 
 195   0.0000       3.717411       101.1559 
 196   0.0000       3.762753       102.3897 
 197   0.0000       3.827995       104.1651 
 198   0.0000       3.828005       104.1653 
 199   0.0000       3.830505       104.2333 
 200   0.0000       3.832617       104.2908 
 201   0.0000       3.834459       104.3409 
 202   0.0000       3.834501       104.3421 
 203   0.0000       3.835189       104.3608 
 204   0.0000       3.839820       104.4868 
 205   0.0000       3.840122       104.4950 
 206   0.0000       3.843394       104.5841 
 207   0.0000       3.843544       104.5881 
 208   0.0000       3.845542       104.6425 
 209   0.0000       3.854215       104.8785 
 210   0.0000       3.861750       105.0836 
 211   0.0000       3.861790       105.0846 
 212   0.0000       3.864473       105.1577 
 213   0.0000       3.874299       105.4250 
 214   0.0000       3.874310       105.4253 
 215   0.0000       3.878159       105.5301 
 216   0.0000       3.878163       105.5302 
 217   0.0000       3.878667       105.5439 
 218   0.0000       3.879380       105.5633 
 219   0.0000       3.905913       106.2853 
 220   0.0000       3.905927       106.2857 
 221   0.0000       3.921151       106.6999 
 222   0.0000       3.934821       107.0719 
 223   0.0000       3.934895       107.0739 
 224   0.0000       3.989436       108.5581 
 225   0.0000       3.989483       108.5593 
 226   0.0000       4.026656       109.5709 
 227   0.0000       4.058514       110.4378 
 228   0.0000       4.058562       110.4391 
 229   0.0000       4.107359       111.7669 
 230   0.0000       4.694862       127.7537 
 231   0.0000       4.696725       127.8044 
 232   0.0000       4.696934       127.8101 
 233   0.0000      27.354585       744.3561 
 234   0.0000      27.354609       744.3568 
 235   0.0000      27.591103       750.7921 
 236   0.0000      27.591119       750.7925 
 237   0.0000      28.440409       773.9029 
 238   0.0000      28.444702       774.0197 
 239   0.0000      28.827386       784.4331 
 240   0.0000      28.827392       784.4332 
 241   0.0000      29.129960       792.6665 
 242   0.0000      30.231945       822.6531 
 243   0.0000      30.231964       822.6536 
 244   0.0000      30.408704       827.4629 
 245   0.0000      43.988617      1196.9911 
 246   0.0000      44.327687      1206.2177 
 247   0.0000      44.452863      1209.6239 
 248   0.0000      44.452866      1209.6240 
 249   0.0000     204.954314      5577.0904 
 250   0.0000     205.107037      5581.2462 
 251   0.0000     205.145477      5582.2922 
 252   0.0000     205.145479      5582.2923 

                    ********************************
                    * MULLIKEN POPULATION ANALYSIS *
                    ********************************

--------------------------------------------
MULLIKEN ATOMIC CHARGES AND SPIN POPULATIONS
--------------------------------------------
   0 Au:    0.509055    0.092034
   1 Au:    0.508962    0.092135
   2 Au:    0.508959    0.092135
   3 Au:    0.328775    0.480816
   4 H :    0.144248    0.242881
Sum of atomic charges         :    2.0000000
Sum of atomic spin populations:    1.0000000

-----------------------------------------------------
MULLIKEN REDUCED ORBITAL CHARGES AND SPIN POPULATIONS
-----------------------------------------------------
CHARGE
  0 Aus       :     2.497100  s :     2.497100
      pz      :     2.099101  p :     6.230234
      px      :     2.021241
      py      :     2.109892
      dz2     :     1.962097  d :     9.751215
      dxz     :     1.992492
      dyz     :     1.904952
      dx2y2   :     1.967333
      dxy     :     1.924341
      f0      :     0.001523  f :     0.012211
      f+1     :     0.000735
      f-1     :     0.002121
      f+2     :     0.001980
      f-2     :     0.001413
      f+3     :     0.002318
      f-3     :     0.002119
      g0      :     0.000017  g :     0.000185
      g+1     :     0.000006
      g-1     :     0.000025
      g+2     :     0.000023
      g-2     :     0.000017
      g+3     :     0.000019
      g-3     :     0.000020
      g+4     :     0.000028
      g-4     :     0.000031
  1 Aus       :     2.497149  s :     2.497149
      pz      :     2.099096  p :     6.230254
      px      :     2.087747
      py      :     2.043411
      dz2     :     1.962103  d :     9.751238
      dxz     :     1.926840
      dyz     :     1.970603
      dx2y2   :     1.935095
      dxy     :     1.956596
      f0      :     0.001523  f :     0.012212
      f+1     :     0.001775
      f-1     :     0.001082
      f+2     :     0.001555
      f-2     :     0.001839
      f+3     :     0.002318
      f-3     :     0.002121
      g0      :     0.000017  g :     0.000186
      g+1     :     0.000020
      g-1     :     0.000011
      g+2     :     0.000018
      g-2     :     0.000021
      g+3     :     0.000018
      g-3     :     0.000020
      g+4     :     0.000031
      g-4     :     0.000029
  2 Aus       :     2.497151  s :     2.497151
      pz      :     2.099096  p :     6.230255
      px      :     2.087748
      py      :     2.043411
      dz2     :     1.962103  d :     9.751238
      dxz     :     1.926840
      dyz     :     1.970603
      dx2y2   :     1.935095
      dxy     :     1.956596
      f0      :     0.001523  f :     0.012212
      f+1     :     0.001775
      f-1     :     0.001082
      f+2     :     0.001555
      f-2     :     0.001839
      f+3     :     0.002318
      f-3     :     0.002121
      g0      :     0.000017  g :     0.000186
      g+1     :     0.000020
      g-1     :     0.000011
      g+2     :     0.000018
      g-2     :     0.000021
      g+3     :     0.000018
      g-3     :     0.000020
      g+4     :     0.000031
      g-4     :     0.000029
  3 Aus       :     2.784711  s :     2.784711
      pz      :     2.069109  p :     6.099436
      px      :     2.015165
      py      :     2.015162
      dz2     :     1.969902  d :     9.779200
      dxz     :     1.919548
      dyz     :     1.919548
      dx2y2   :     1.985101
      dxy     :     1.985101
      f0      :     0.001390  f :     0.007764
      f+1     :     0.001705
      f-1     :     0.001705
      f+2     :     0.001240
      f-2     :     0.001240
      f+3     :     0.000239
      f-3     :     0.000244
      g0      :     0.000015  g :     0.000114
      g+1     :     0.000021
      g-1     :     0.000021
      g+2     :     0.000020
      g-2     :     0.000020
      g+3     :     0.000008
      g-3     :     0.000008
      g+4     :     0.000001
      g-4     :     0.000001
  4 H s       :     0.839496  s :     0.839496
      pz      :    -0.021188  p :     0.012440
      px      :     0.016815
      py      :     0.016813
      dz2     :     0.000751  d :     0.003816
      dxz     :     0.000878
      dyz     :     0.000877
      dx2y2   :     0.000655
      dxy     :     0.000655

SPIN
  0 Aus       :    -0.022531  s :    -0.022531
      pz      :     0.064982  p :     0.059547
      px      :    -0.000205
      py      :    -0.005230
      dz2     :    -0.001415  d :     0.054572
      dxz     :    -0.000695
      dyz     :     0.052797
      dx2y2   :     0.003392
      dxy     :     0.000492
      f0      :     0.000003  f :     0.000438
      f+1     :     0.000005
      f-1     :    -0.000012
      f+2     :     0.000466
      f-2     :    -0.000030
      f+3     :    -0.000017
      f-3     :     0.000023
      g0      :     0.000001  g :     0.000008
      g+1     :    -0.000000
      g-1     :     0.000000
      g+2     :     0.000002
      g-2     :    -0.000000
      g+3     :     0.000001
      g-3     :     0.000003
      g+4     :     0.000001
      g-4     :     0.000000
  1 Aus       :    -0.022475  s :    -0.022475
      pz      :     0.064979  p :     0.059578
      px      :    -0.003950
      py      :    -0.001451
      dz2     :    -0.001413  d :     0.054584
      dxz     :     0.039422
      dyz     :     0.012680
      dx2y2   :     0.001218
      dxy     :     0.002675
      f0      :     0.000003  f :     0.000440
      f+1     :    -0.000007
      f-1     :     0.000001
      f+2     :     0.000094
      f-2     :     0.000343
      f+3     :    -0.000017
      f-3     :     0.000023
      g0      :     0.000001  g :     0.000008
      g+1     :     0.000000
      g-1     :     0.000000
      g+2     :     0.000000
      g-2     :     0.000001
      g+3     :     0.000001
      g-3     :     0.000003
      g+4     :     0.000001
      g-4     :     0.000001
  2 Aus       :    -0.022475  s :    -0.022475
      pz      :     0.064979  p :     0.059578
      px      :    -0.003950
      py      :    -0.001451
      dz2     :    -0.001413  d :     0.054584
      dxz     :     0.039422
      dyz     :     0.012680
      dx2y2   :     0.001218
      dxy     :     0.002675
      f0      :     0.000003  f :     0.000440
      f+1     :    -0.000007
      f-1     :     0.000001
      f+2     :     0.000094
      f-2     :     0.000343
      f+3     :    -0.000017
      f-3     :     0.000023
      g0      :     0.000001  g :     0.000008
      g+1     :     0.000000
      g-1     :     0.000000
      g+2     :     0.000000
      g-2     :     0.000001
      g+3     :     0.000001
      g-3     :     0.000003
      g+4     :     0.000001
      g-4     :     0.000001
  3 Aus       :     0.478387  s :     0.478387
      pz      :    -0.001647  p :     0.001208
      px      :     0.001428
      py      :     0.001427
      dz2     :     0.009362  d :     0.001098
      dxz     :    -0.003382
      dyz     :    -0.003377
      dx2y2   :    -0.000753
      dxy     :    -0.000753
      f0      :     0.000117  f :     0.000119
      f+1     :    -0.000022
      f-1     :    -0.000022
      f+2     :     0.000011
      f-2     :     0.000011
      f+3     :     0.000005
      f-3     :     0.000020
      g0      :     0.000001  g :     0.000003
      g+1     :     0.000001
      g-1     :     0.000001
      g+2     :     0.000000
      g-2     :     0.000000
      g+3     :     0.000000
      g-3     :    -0.000000
      g+4     :     0.000000
      g-4     :     0.000000
  4 H s       :     0.243783  s :     0.243783
      pz      :    -0.000949  p :    -0.000971
      px      :    -0.000012
      py      :    -0.000010
      dz2     :     0.000021  d :     0.000069
      dxz     :     0.000003
      dyz     :     0.000003
      dx2y2   :     0.000021
      dxy     :     0.000021


                     *******************************
                     * LOEWDIN POPULATION ANALYSIS *
                     *******************************

-------------------------------------------
LOEWDIN ATOMIC CHARGES AND SPIN POPULATIONS
-------------------------------------------
   0 Au:    0.554175    0.194124
   1 Au:    0.554158    0.194131
   2 Au:    0.554157    0.194131
   3 Au:    0.461960    0.270586
   4 H :   -0.124450    0.147029

----------------------------------------------------
LOEWDIN REDUCED ORBITAL CHARGES AND SPIN POPULATIONS
----------------------------------------------------
CHARGE
  0 Aus       :     2.269287  s :     2.269287
      pz      :     2.168513  p :     6.355003
      px      :     2.034126
      py      :     2.152364
      dz2     :     1.968850  d :     9.799096
      dxz     :     1.986953
      dyz     :     1.932737
      dx2y2   :     1.971610
      dxy     :     1.938946
      f0      :     0.002395  f :     0.022160
      f+1     :     0.001274
      f-1     :     0.004090
      f+2     :     0.004915
      f-2     :     0.001785
      f+3     :     0.004591
      f-3     :     0.003108
      g0      :     0.000026  g :     0.000280
      g+1     :     0.000008
      g-1     :     0.000034
      g+2     :     0.000035
      g-2     :     0.000028
      g+3     :     0.000019
      g-3     :     0.000045
      g+4     :     0.000039
      g-4     :     0.000045
  1 Aus       :     2.269304  s :     2.269304
      pz      :     2.168509  p :     6.355000
      px      :     2.122806
      py      :     2.063686
      dz2     :     1.968851  d :     9.799099
      dxz     :     1.946292
      dyz     :     1.973396
      dx2y2   :     1.947118
      dxy     :     1.963441
      f0      :     0.002395  f :     0.022160
      f+1     :     0.003386
      f-1     :     0.001978
      f+2     :     0.002568
      f-2     :     0.004133
      f+3     :     0.004591
      f-3     :     0.003109
      g0      :     0.000026  g :     0.000280
      g+1     :     0.000028
      g-1     :     0.000015
      g+2     :     0.000030
      g-2     :     0.000033
      g+3     :     0.000019
      g-3     :     0.000045
      g+4     :     0.000043
      g-4     :     0.000040
  2 Aus       :     2.269304  s :     2.269304
      pz      :     2.168509  p :     6.355001
      px      :     2.122806
      py      :     2.063686
      dz2     :     1.968851  d :     9.799099
      dxz     :     1.946292
      dyz     :     1.973396
      dx2y2   :     1.947118
      dxy     :     1.963441
      f0      :     0.002395  f :     0.022160
      f+1     :     0.003386
      f-1     :     0.001978
      f+2     :     0.002568
      f-2     :     0.004133
      f+3     :     0.004591
      f-3     :     0.003109
      g0      :     0.000026  g :     0.000280
      g+1     :     0.000028
      g-1     :     0.000015
      g+2     :     0.000030
      g-2     :     0.000033
      g+3     :     0.000019
      g-3     :     0.000045
      g+4     :     0.000043
      g-4     :     0.000040
  3 Aus       :     2.495354  s :     2.495354
      pz      :     2.134450  p :     6.190960
      px      :     2.028255
      py      :     2.028255
      dz2     :     1.987974  d :     9.837983
      dxz     :     1.937767
      dyz     :     1.937770
      dx2y2   :     1.987236
      dxy     :     1.987235
      f0      :     0.002095  f :     0.013580
      f+1     :     0.003422
      f-1     :     0.003422
      f+2     :     0.001970
      f-2     :     0.001970
      f+3     :     0.000373
      f-3     :     0.000328
      g0      :     0.000018  g :     0.000163
      g+1     :     0.000032
      g-1     :     0.000032
      g+2     :     0.000028
      g-2     :     0.000028
      g+3     :     0.000011
      g-3     :     0.000011
      g+4     :     0.000001
      g-4     :     0.000001
  4 H s       :     0.740787  s :     0.740787
      pz      :     0.133490  p :     0.363555
      px      :     0.115035
      py      :     0.115030
      dz2     :     0.002664  d :     0.020109
      dxz     :     0.005230
      dyz     :     0.005229
      dx2y2   :     0.003493
      dxy     :     0.003493

SPIN
  0 Aus       :    -0.006229  s :    -0.006229
      pz      :     0.119590  p :     0.121286
      px      :    -0.000186
      py      :     0.001882
      dz2     :     0.000492  d :     0.077096
      dxz     :    -0.000699
      dyz     :     0.072550
      dx2y2   :     0.004158
      dxy     :     0.000594
      f0      :     0.000077  f :     0.001945
      f+1     :     0.000003
      f-1     :     0.000116
      f+2     :     0.001656
      f-2     :    -0.000037
      f+3     :    -0.000016
      f-3     :     0.000147
      g0      :     0.000003  g :     0.000026
      g+1     :    -0.000000
      g-1     :     0.000001
      g+2     :     0.000004
      g-2     :    -0.000001
      g+3     :     0.000000
      g-3     :     0.000014
      g+4     :     0.000002
      g-4     :     0.000000
  1 Aus       :    -0.006223  s :    -0.006223
      pz      :     0.119589  p :     0.121286
      px      :     0.001366
      py      :     0.000331
      dz2     :     0.000493  d :     0.077097
      dxz     :     0.054236
      dyz     :     0.017615
      dx2y2   :     0.001485
      dxy     :     0.003268
      f0      :     0.000077  f :     0.001945
      f+1     :     0.000088
      f-1     :     0.000031
      f+2     :     0.000386
      f-2     :     0.001233
      f+3     :    -0.000016
      f-3     :     0.000147
      g0      :     0.000003  g :     0.000026
      g+1     :     0.000001
      g-1     :     0.000000
      g+2     :     0.000001
      g-2     :     0.000003
      g+3     :     0.000000
      g-3     :     0.000014
      g+4     :     0.000001
      g-4     :     0.000002
  2 Aus       :    -0.006223  s :    -0.006223
      pz      :     0.119589  p :     0.121286
      px      :     0.001366
      py      :     0.000331
      dz2     :     0.000493  d :     0.077097
      dxz     :     0.054236
      dyz     :     0.017615
      dx2y2   :     0.001485
      dxy     :     0.003268
      f0      :     0.000077  f :     0.001945
      f+1     :     0.000088
      f-1     :     0.000031
      f+2     :     0.000386
      f-2     :     0.001233
      f+3     :    -0.000016
      f-3     :     0.000147
      g0      :     0.000003  g :     0.000026
      g+1     :     0.000001
      g-1     :     0.000000
      g+2     :     0.000001
      g-2     :     0.000003
      g+3     :     0.000000
      g-3     :     0.000014
      g+4     :     0.000001
      g-4     :     0.000002
  3 Aus       :     0.276359  s :     0.276359
      pz      :    -0.009378  p :    -0.008031
      px      :     0.000674
      py      :     0.000673
      dz2     :     0.010886  d :     0.002276
      dxz     :    -0.003749
      dyz     :    -0.003745
      dx2y2   :    -0.000558
      dxy     :    -0.000558
      f0      :     0.000212  f :    -0.000018
      f+1     :    -0.000094
      f-1     :    -0.000094
      f+2     :    -0.000025
      f-2     :    -0.000025
      f+3     :     0.000003
      f-3     :     0.000004
      g0      :     0.000001  g :     0.000001
      g+1     :     0.000001
      g-1     :     0.000001
      g+2     :    -0.000000
      g-2     :    -0.000000
      g+3     :     0.000000
      g-3     :    -0.000001
      g+4     :     0.000000
      g-4     :     0.000000
  4 H s       :     0.139437  s :     0.139437
      pz      :     0.010464  p :     0.007742
      px      :    -0.001361
      py      :    -0.001361
      dz2     :     0.000010  d :    -0.000150
      dxz     :    -0.000043
      dyz     :    -0.000043
      dx2y2   :    -0.000037
      dxy     :    -0.000037


                      *****************************
                      * MAYER POPULATION ANALYSIS *
                      *****************************

  NA   - Mulliken gross atomic population
  ZA   - Total nuclear charge
  QA   - Mulliken gross atomic charge
  VA   - Mayer's total valence
  BVA  - Mayer's bonded valence
  FA   - Mayer's free valence

  ATOM       NA         ZA         QA         VA         BVA        FA
  0 Au    18.4909    19.0000     0.5091     1.5235     1.4960     0.0275
  1 Au    18.4910    19.0000     0.5090     1.5235     1.4960     0.0275
  2 Au    18.4910    19.0000     0.5090     1.5235     1.4960     0.0275
  3 Au    18.6712    19.0000     0.3288     1.4326     1.1947     0.2379
  4 H      0.8558     1.0000     0.1442     0.9540     0.8926     0.0614

  Mayer bond orders larger than 0.100000
B(  0-Au,  1-Au) :   0.4110 B(  0-Au,  2-Au) :   0.4110 B(  0-Au,  3-Au) :   0.3873 
B(  0-Au,  4-H ) :   0.2866 B(  1-Au,  2-Au) :   0.4110 B(  1-Au,  3-Au) :   0.3873 
B(  1-Au,  4-H ) :   0.2867 B(  2-Au,  3-Au) :   0.3873 B(  2-Au,  4-H ) :   0.2867 


-------
TIMINGS
-------

Total SCF time: 0 days 0 hours 0 min 35 sec 

Total time                  ....      35.397 sec
Sum of individual times     ....      35.036 sec  ( 99.0%)

Fock matrix formation       ....      32.972 sec  ( 93.1%)
  XC integration            ....       1.539 sec  (  4.7% of F)
    Basis function eval.    ....       0.137 sec  (  8.9% of XC)
    Density eval.           ....       0.235 sec  ( 15.2% of XC)
    XC-Functional eval.     ....       0.051 sec  (  3.3% of XC)
    XC-Potential eval.      ....       0.430 sec  ( 27.9% of XC)
Diagonalization             ....       0.337 sec  (  1.0%)
Density matrix formation    ....       0.033 sec  (  0.1%)
Population analysis         ....       0.021 sec  (  0.1%)
Initial guess               ....       1.054 sec  (  3.0%)
Orbital Transformation      ....       0.000 sec  (  0.0%)
Orbital Orthonormalization  ....       0.000 sec  (  0.0%)
DIIS solution               ....       0.126 sec  (  0.4%)
Grid generation             ....       0.494 sec  (  1.4%)

-------------------------   --------------------
FINAL SINGLE POINT ENERGY      -542.703834198017
-------------------------   --------------------


                            ***************************************
                            *     ORCA property calculations      *
                            ***************************************

                                    ---------------------
                                    Active property flags
                                    ---------------------
   (+) Dipole Moment


------------------------------------------------------------------------------
                       ORCA ELECTRIC PROPERTIES CALCULATION
------------------------------------------------------------------------------

Dipole Moment Calculation                       ... on
Quadrupole Moment Calculation                   ... off
Polarizability Calculation                      ... off
GBWName                                         ... Au04C2_H_F.gbw
Electron density file                           ... Au04C2_H_F.scfp
The origin for moment calculation is the CENTER OF MASS  = ( 0.000000,  0.000000  0.005925)

-------------
DIPOLE MOMENT
-------------
                                X             Y             Z
Electronic contribution:     -0.00000      -0.00001       2.45086
Nuclear contribution   :      0.00000       0.00000      -2.84605
                        -----------------------------------------
Total Dipole Moment    :     -0.00000      -0.00001      -0.39519
                        -----------------------------------------
Magnitude (a.u.)       :      0.39519
Magnitude (Debye)      :      1.00450



--------------------
Rotational spectrum 
--------------------
 
Rotational constants in cm-1:     0.011617     0.011195     0.011195 
Rotational constants in MHz :   348.279987   335.605170   335.605004 

 Dipole components along the rotational axes: 
x,y,z [a.u.] :    -0.395191    -0.000010    -0.000000 
x,y,z [Debye]:    -1.004497    -0.000025    -0.000000 

 

Timings for individual modules:

Sum of individual times         ...       37.538 sec (=   0.626 min)
GTO integral calculation        ...        1.768 sec (=   0.029 min)   4.7 %
SCF iterations                  ...       35.770 sec (=   0.596 min)  95.3 %
                             ****ORCA TERMINATED NORMALLY****
TOTAL RUN TIME: 0 days 0 hours 0 minutes 38 seconds 12 msec
