
                                 *****************
                                 * O   R   C   A *
                                 *****************

           --- An Ab Initio, DFT and Semiempirical electronic structure package ---

                  #######################################################
                  #                        -***-                        #
                  #          Department of theory and spectroscopy      #
                  #               Directorship: Frank Neese             #
                  #        Max Planck Institute fuer Kohlenforschung    #
                  #                Kaiser Wilhelm Platz 1               #
                  #                 D-45470 Muelheim/Ruhr               #
                  #                      Germany                        #
                  #                                                     #
                  #                  All rights reserved                #
                  #                        -***-                        #
                  #######################################################


                         Program Version 4.2.0 -  RELEASE  -


 With contributions from (in alphabetic order):
   Daniel Aravena         : Magnetic Suceptibility
   Michael Atanasov       : Ab Initio Ligand Field Theory (pilot matlab implementation)
   Alexander A. Auer      : GIAO ZORA, VPT2
   Ute Becker             : Parallelization
   Giovanni Bistoni       : ED, misc. LED, open-shell LED, HFLED
   Martin Brehm           : Molecular dynamics
   Dmytro Bykov           : SCF Hessian
   Vijay G. Chilkuri      : MRCI spin determinant printing, contributions to CSF-ICE
   Dipayan Datta          : RHF DLPNO-CCSD density
   Achintya Kumar Dutta   : EOM-CC, STEOM-CC
   Dmitry Ganyushin       : Spin-Orbit,Spin-Spin,Magnetic field MRCI
   Miquel Garcia          : C-PCM Hessian, Gaussian charge scheme
   Yang Guo               : DLPNO-NEVPT2, CIM, IAO-localization
   Andreas Hansen         : Spin unrestricted coupled pair/coupled cluster methods
   Benjamin Helmich-Paris : CASSCF linear response (MC-RPA)
   Lee Huntington         : MR-EOM, pCC
   Robert Izsak           : Overlap fitted RIJCOSX, COSX-SCS-MP3, EOM
   Christian Kollmar      : KDIIS, OOCD, Brueckner-CCSD(T), CCSD density
   Simone Kossmann        : Meta GGA functionals, TD-DFT gradient, OOMP2, MP2 Hessian
   Martin Krupicka        : AUTO-CI
   Lucas Lang             : DCDCAS
   Dagmar Lenk            : GEPOL surface, SMD
   Dimitrios Liakos       : Extrapolation schemes; Compound Job, initial MDCI parallelization
   Dimitrios Manganas     : Further ROCIS development; embedding schemes
   Dimitrios Pantazis     : SARC Basis sets
   Taras Petrenko         : DFT Hessian,TD-DFT gradient, ASA, ECA, R-Raman, ABS, FL, XAS/XES, NRVS
   Peter Pinski           : DLPNO-MP2, DLPNO-MP2 Gradient
   Christoph Reimann      : Effective Core Potentials
   Marius Retegan         : Local ZFS, SOC
   Christoph Riplinger    : Optimizer, TS searches, QM/MM, DLPNO-CCSD(T), (RO)-DLPNO pert. Triples
   Tobias Risthaus        : Range-separated hybrids, TD-DFT gradient, RPA, STAB
   Michael Roemelt        : Original ROCIS implementation
   Masaaki Saitow         : Open-shell DLPNO-CCSD energy and density
   Barbara Sandhoefer     : DKH picture change effects
   Avijit Sen             : IP-ROCIS
   Kantharuban Sivalingam : CASSCF convergence, NEVPT2, FIC-MRCI
   Bernardo de Souza      : ESD, SOC TD-DFT
   Georgi Stoychev        : AutoAux, RI-MP2 NMR
   Willem Van den Heuvel  : Paramagnetic NMR
   Boris Wezisla          : Elementary symmetry handling
   Frank Wennmohs         : Technical directorship


 We gratefully acknowledge several colleagues who have allowed us to
 interface, adapt or use parts of their codes:
   Stefan Grimme, W. Hujo, H. Kruse,             : VdW corrections, initial TS optimization,
                  C. Bannwarth                     DFT functionals, gCP, sTDA/sTD-DF
   Ed Valeev, F. Pavosevic, A. Kumar             : LibInt (2-el integral package), F12 methods
   Garnet Chan, S. Sharma, J. Yang, R. Olivares  : DMRG
   Ulf Ekstrom                                   : XCFun DFT Library
   Mihaly Kallay                                 : mrcc  (arbitrary order and MRCC methods)
   Andreas Klamt, Michael Diedenhofen            : otool_cosmo (COSMO solvation model)
   Jiri Pittner, Ondrej Demel                    : Mk-CCSD
   Frank Weinhold                                : gennbo (NPA and NBO analysis)
   Christopher J. Cramer and Donald G. Truhlar   : smd solvation model
   Lars Goerigk                                  : TD-DFT with DH, B97 family of functionals
   V. Asgeirsson, H. Jonsson                     : NEB implementation
   FAccTs GmbH                                   : IRC, NEB, NEB-TS, Multilevel, MM, QM/MM, CI optimization
   S Lehtola, MJT Oliveira, MAL Marques          : LibXC Library


 Your calculation uses the libint2 library for the computation of 2-el integrals
 For citations please refer to: http://libint.valeyev.net

 Your ORCA version has been built with support for libXC version: 4.2.3
 For citations please refer to: https://tddft.org/programs/libxc/

 This ORCA versions uses:
   CBLAS   interface :  Fast vector & matrix operations
   LAPACKE interface :  Fast linear algebra routines
   SCALAPACK package :  Parallel linear algebra routines


Your calculation utilizes the DFT-NL dispersion correction.
Cite in your paper:
Vydrov, O. A.; Van Voorhis, T. J. Chem. Phys. 2010, 133, 244103
Hujo, W.; Grimme, S. J. Chem. Theory Comput. 2011, 7, 3866 
   

----- Orbital basis set information -----
Your calculation utilizes the basis: def2-TZVPPD
   F. Weigend and R. Ahlrichs, Phys. Chem. Chem. Phys. 7, 3297 (2005).
   D. Rappoport and F. Furche, J. Chem. Phys. 133 134105 (2010).

----- AuxJK basis set information -----
Your calculation utilizes the auxiliary basis: def2/JK
   H-Ba, Hf-Rn: F. Weigend, J. Comput. Chem. 29, 167 (2008).

cite the ECPs for Au [Def2-ECP] as follows:
Ce-Yb(ecp-28): M. Dolg, H. Stoll, H.Preuss, J. Chem. Phys., 1989, 90, 1730-1734.
Y-Cd(ecp-28), Hf-Hg(ecp-46): D. Andrae,U. Haeussermann, M. Dolg, H. Stoll, H. Preuss, Theor. Chim. Acta, 1990, 77, 123-141.
In-Sb(ecp-28), Tl-Bi(ecp-46): B. Metz, H. Stoll, M. Dolg, J. Chem. Phys., 2000, 113, 2563-2569.
Te-Xe(ecp-28), Po-Rn(ecp-46): K. A. Peterson, D. Figgen, E. Goll, H. Stoll, M. Dolg, J. Chem. Phys., 2003, 119, 11113-11123.
Rb(ecp-28), Cs(ecp-46): T. Leininger, A. Nicklass, W. Kuechle, H. Stoll, M. Dolg, A. Bergner, Chem. Phys. Lett., 1996, 255, 274-280.
Sr(ecp-28), Ba(ecp-46): M. Kaupp, P. V. Schleyer, H. Stoll and H. Preuss, J. Chem. Phys., 1991, 94, 1360-1366.
La(ecp-46): M. Dolg, H. Stoll, A. Savin, H. Preuss, Theor. Chim. Acta, 1989, 75, 173-194.
Lu(ecp-28): X. Cao, M. Dolg, J. Chem. Phys., 2001, 115, 7348-7355.

ECP parameters for Au [Def2-ECP] have been obtained from:
TURBOMOLE (7.0.2)

================================================================================
                                        WARNINGS
                       Please study these warnings very carefully!
================================================================================


WARNING: your system is open-shell and RHF/RKS was chosen
  ===> : WILL SWITCH to UHF/UKS


INFO   : the flag for use of LIBINT has been found!

================================================================================
                                       INPUT FILE
================================================================================
NAME = Au04C2_H_E.in
|  1> #
|  2> # Au04C2_H_E wB97X-V/Def2-TZVPPD
|  3> #
|  4> ! wb97x-v def2-tzvppd def2/jk grid4 nofinalgrid
|  5> 
|  6> *xyz 2 2
|  7> Au       0.000000    1.337591    1.056475 
|  8> Au      -0.000000   -1.337591    1.056475 
|  9> Au      -1.306954    0.000000   -1.070288 
| 10> Au       1.306954   -0.000000   -1.070288 
| 11> H       -0.000000    0.000000    2.182427 
| 12> *
| 13> 
| 14> %maxcore 5000
| 15> 
| 16> %pal
| 17> nprocs = 24
| 18> end
| 19> 
| 20> 
| 21>                          ****END OF INPUT****
================================================================================

                       ****************************
                       * Single Point Calculation *
                       ****************************

---------------------------------
CARTESIAN COORDINATES (ANGSTROEM)
---------------------------------
  Au     0.000000    1.337591    1.056475
  Au    -0.000000   -1.337591    1.056475
  Au    -1.306954    0.000000   -1.070288
  Au     1.306954   -0.000000   -1.070288
  H     -0.000000    0.000000    2.182427

----------------------------
CARTESIAN COORDINATES (A.U.)
----------------------------
  NO LB      ZA    FRAG     MASS         X           Y           Z
   0 Au   19.0000*   0   196.966    0.000000    2.527681    1.996448
   1 Au   19.0000*   0   196.966   -0.000000   -2.527681    1.996448
   2 Au   19.0000*   0   196.966   -2.469785    0.000000   -2.022551
   3 Au   19.0000*   0   196.966    2.469785   -0.000000   -2.022551
   4 H     1.0000    0     1.008   -0.000000    0.000000    4.124189
* core charge reduced due to ECP

--------------------------------
INTERNAL COORDINATES (ANGSTROEM)
--------------------------------
 Au     0   0   0     0.000000000000     0.00000000     0.00000000
 Au     1   0   0     2.675182000000     0.00000000     0.00000000
 Au     1   2   0     2.832030949613    61.81577870     0.00000000
 Au     3   1   2     2.613908000000    62.51670281   286.18517030
 H      1   2   3     1.748404298092    40.08986778   148.42813812

---------------------------
INTERNAL COORDINATES (A.U.)
---------------------------
 Au     0   0   0     0.000000000000     0.00000000     0.00000000
 Au     1   0   0     5.055361338396     0.00000000     0.00000000
 Au     1   2   0     5.351762897558    61.81577870     0.00000000
 Au     3   1   2     4.939570259266    62.51670281   286.18517030
 H      1   2   3     3.304005294764    40.08986778   148.42813812

---------------------
BASIS SET INFORMATION
---------------------
There are 2 groups of distinct atoms

 Group   1 Type Au  : 8s8p6d2f1g contracted to 6s5p3d2f1g pattern {311111/41111/411/11/1}
 Group   2 Type H   : 5s3p1d contracted to 3s3p1d pattern {311/111/1}

Atom   0Au   basis set group =>   1
Atom   1Au   basis set group =>   1
Atom   2Au   basis set group =>   1
Atom   3Au   basis set group =>   1
Atom   4H    basis set group =>   2
----------------------------------
AUXILIARY/JK BASIS SET INFORMATION
----------------------------------
There are 2 groups of distinct atoms

 Group   1 Type Au  : 13s12p11d9f5g3h2i contracted to 13s11p10d8f4g3h2i pattern {1111111111111/21111111111/2111111111/21111111/2111/111/11}
 Group   2 Type H   : 4s2p2d contracted to 2s2p2d pattern {31/11/11}

Atom   0Au   basis set group =>   1
Atom   1Au   basis set group =>   1
Atom   2Au   basis set group =>   1
Atom   3Au   basis set group =>   1
Atom   4H    basis set group =>   2
-------------------------
ECP PARAMETER INFORMATION
-------------------------

 Group 1, Type Au ECP Def2-ECP (replacing 60 core electrons, lmax=3)

Atom   0Au   ECP group =>   1
Atom   1Au   ECP group =>   1
Atom   2Au   ECP group =>   1
Atom   3Au   ECP group =>   1



           ************************************************************
           *        Program running with 24 parallel MPI-processes    *
           *              working on a common directory               *
           ************************************************************
------------------------------------------------------------------------------
                           ORCA GTO INTEGRAL CALCULATION
------------------------------------------------------------------------------

                         BASIS SET STATISTICS AND STARTUP INFO

 # of primitive gaussian shells          ...  109
 # of primitive gaussian functions       ...  359
 # of contracted shells                  ...   75
 # of contracted basis functions         ...  253
 Highest angular momentum                ...    4
 Maximum contraction depth               ...    4
 Integral package used                   ... LIBINT
 Integral threshhold            Thresh   ...  1.000e-10
 Primitive cut-off              TCut     ...  1.000e-11


------------------------------ INTEGRAL EVALUATION ----------------------------


 * One electron integrals 

   ECP integrals                         ... done
 Pre-screening matrix                    ... done
 Shell pair data                         ... done (   0.001 sec)



           ************************************************************
           *        Program running with 24 parallel MPI-processes    *
           *              working on a common directory               *
           ************************************************************
-------------------------------------------------------------------------------
                                 ORCA SCF
-------------------------------------------------------------------------------

------------
SCF SETTINGS
------------
Hamiltonian:
 Density Functional     Method          .... DFT(GTOs)
 Exchange Functional    Exchange        .... WB97X-V
 Correlation Functional Correlation     .... WB97X-V
 Gradients option       PostSCFGGA      .... off
 Hybrid DFT is turned on
   Fraction HF Exchange ScalHFX         ....  0.167000
   Scaling of DF-GGA-X  ScalDFX         ....  0.000000
   Scaling of DF-GGA-C  ScalDFC         ....  1.000000
   Scaling of DF-LDA-C  ScalLDAC        ....  1.000000
   Perturbative correction              ....  0.000000
   Density functional embedding theory  .... OFF
 Long-range corrected/Screened/Range-Separated Hybrid DFT is turned on
   Amount of maximum screened exact exchange              ....  0.833000
   Range separation parameter mu (erf(mu*r12)/r12)        ....  0.300000
   NL short-range parameter             ....  6.000000
   NL long-range parameter              ....  0.010000


General Settings:
 Integral files         IntName         .... Au04C2_H_E
 Hartree-Fock type      HFTyp           .... UHF
 Total Charge           Charge          ....    2
 Multiplicity           Mult            ....    2
 Number of Electrons    NEL             ....   75
 Basis Dimension        Dim             ....  253
 Nuclear Repulsion      ENuc            ....    431.5478390239 Eh

Convergence Acceleration:
 DIIS                   CNVDIIS         .... on
   Start iteration      DIISMaxIt       ....    12
   Startup error        DIISStart       ....  0.200000
   # of expansion vecs  DIISMaxEq       ....     5
   Bias factor          DIISBfac        ....   1.050
   Max. coefficient     DIISMaxC        ....  10.000
 Newton-Raphson         CNVNR           .... off
 SOSCF                  CNVSOSCF        .... off
 Level Shifting         CNVShift        .... on
   Level shift para.    LevelShift      ....    0.2500
   Turn off err/grad.   ShiftErr        ....    0.0010
 Zerner damping         CNVZerner       .... off
 Static damping         CNVDamp         .... on
   Fraction old density DampFac         ....    0.7000
   Max. Damping (<1)    DampMax         ....    0.9800
   Min. Damping (>=0)   DampMin         ....    0.0000
   Turn off err/grad.   DampErr         ....    0.1000
 Fernandez-Rico         CNVRico         .... off

SCF Procedure:
 Maximum # iterations   MaxIter         ....   125
 SCF integral mode      SCFMode         .... Direct
   Integral package                     .... LIBINT
 Reset frequency        DirectResetFreq ....    20
 Integral Threshold     Thresh          ....  1.000e-10 Eh
 Primitive CutOff       TCut            ....  1.000e-11 Eh

Convergence Tolerance:
 Convergence Check Mode ConvCheckMode   .... Total+1el-Energy
 Convergence forced     ConvForced      .... 0
 Energy Change          TolE            ....  1.000e-06 Eh
 1-El. energy change                    ....  1.000e-03 Eh
 DIIS Error             TolErr          ....  1.000e-06


Diagonalization of the overlap matrix:
Smallest eigenvalue                        ... 1.106e-03
Time for diagonalization                   ...    0.011 sec
Threshold for overlap eigenvalues          ... 1.000e-08
Number of eigenvalues below threshold      ... 0
Time for construction of square roots      ...    0.007 sec
Total time needed                          ...    0.019 sec

-------------------
DFT GRID GENERATION
-------------------

General Integration Accuracy     IntAcc      ...  4.670
Radial Grid Type                 RadialGrid  ... Gauss-Chebyshev
Angular Grid (max. acc.)         AngularGrid ... Lebedev-302
Angular grid pruning method      GridPruning ... 3 (G Style)
Weight generation scheme         WeightScheme... Becke
Basis function cutoff            BFCut       ...    1.0000e-10
Integration weight cutoff        WCut        ...    1.0000e-14
Grids for H and He will be reduced by one unit

# of grid points (after initial pruning)     ...  50002 (   0.0 sec)
# of grid points (after weights+screening)   ...  49058 (   0.0 sec)
nearest neighbour list constructed           ...    0.0 sec
Grid point re-assignment to atoms done       ...    0.0 sec
Grid point division into batches done        ...    0.4 sec
Reduced shell lists constructed in    0.4 sec

Total number of grid points                  ...    49058
Total number of batches                      ...      769
Average number of points per batch           ...       63
Average number of grid points per atom       ...     9812
Average number of shells per batch           ...    18.53 (24.71%)
Average number of basis functions per batch  ...    53.88 (21.30%)
Average number of large shells per batch     ...    13.18 (71.11%)
Average number of large basis fcns per batch ...    37.47 (69.54%)
Maximum spatial batch extension              ...  31.96, 26.72, 24.85 au
Average spatial batch extension              ...   0.46,  0.39,  0.40 au

Time for grid setup =    0.444 sec

------------------------------
INITIAL GUESS: MODEL POTENTIAL
------------------------------
Loading Hartree-Fock densities                     ... done
  calling /sw/apps/orca/orca_4_2_0_linux_x86-64_openmpi314/orca Au04C2_H_E_atom79.inp > Au04C2_H_E_atom79.out in order to generate an atomic fitting density for atom 0 (Au with ECP) on-the-fly... 
    atom 0 (Au), assumed electronic state with S=2: 1s2 2s2 2p6 3s2 3p6 4s2 3d10 4p6 5s2 4d10 5p6 6s1 4f14 5d10           ... done
Calculating cut-offs                               ... done
Setting up the integral package                    ... done
Initializing the effective Hamiltonian             ... done
Starting the Coulomb interaction                   ... done (   0.0 sec)
Reading the grid                                   ... done
Mapping shells                                     ... done
Starting the XC term evaluation                    ... done (   0.0 sec)
  promolecular density results
     # of electrons  =    317.008725377
     EX              =  -1171.505098940
     EC              =    -25.073235536
     EX+EC           =  -1196.578334475
Transforming the Hamiltonian                       ... done (   0.0 sec)
Diagonalizing the Hamiltonian                      ... done (   0.0 sec)
Back transforming the eigenvectors                 ... done (   0.0 sec)
Now organizing SCF variables                       ... done
                      ------------------
                      INITIAL GUESS DONE (   1.5 sec)
                      ------------------
--------------
SCF ITERATIONS
--------------
ITER       Energy         Delta-E        Max-DP      RMS-DP      [F,P]     Damp
               ***  Starting incremental Fock matrix formation  ***
  0   -541.8788389574   0.000000000000 0.04899053  0.00117665  0.4582021 0.7000
  1   -542.2770855688  -0.398246611431 0.04993743  0.00094773  0.3384734 0.7000
  2   -542.4978423368  -0.220756768027 0.04736456  0.00069959  0.2485978 0.7000
                               ***Turning on DIIS***
  3   -542.6367536717  -0.138911334816 0.03980236  0.00053624  0.1798286 0.7000
  4   -542.7340174312  -0.097263759572 0.03562540  0.00047015  0.1283943 0.7000
  5   -542.8045158901  -0.070498458899 0.08768071  0.00125596  0.0891641 0.0000
  6   -542.9857737864  -0.181257896245 0.01499890  0.00021238  0.0093817 0.0000
  7   -542.9894476841  -0.003673897741 0.01338204  0.00019485  0.0064505 0.0000
  8   -542.9915382195  -0.002090535364 0.00885027  0.00014406  0.0043574 0.0000
  9   -542.9926279473  -0.001089727802 0.00490406  0.00008382  0.0023443 0.0000
 10   -542.9929782450  -0.000350297714 0.00314489  0.00004797  0.0013586 0.0000
 11   -542.9930973577  -0.000119112716 0.00331719  0.00004964  0.0007759 0.0000
 12   -542.9931588915  -0.000061533818 0.00098655  0.00001342  0.0002476 0.0000
 13   -542.9931667183  -0.000007826768 0.00048761  0.00000709  0.0001162 0.0000
 14   -542.9931689441  -0.000002225770 0.00032283  0.00000442  0.0000835 0.0000
                 **** Energy Check signals convergence ****

               *****************************************************
               *                     SUCCESS                       *
               *           SCF CONVERGED AFTER  15 CYCLES          *
               *****************************************************


Setting up the DFT-NL grid :

General Integration Accuracy     IntAcc      ...  4.340
Radial Grid Type                 RadialGrid  ... Gauss-Chebyshev
Angular Grid (max. acc.)         AngularGrid ... Lebedev-110
Angular grid pruning method      GridPruning ... 3 (G Style)
Weight generation scheme         WeightScheme... Becke
Basis function cutoff            BFCut       ...    1.0000e-10
Integration weight cutoff        WCut        ...    1.0000e-14
Grids for H and He will be reduced by one unit

# of grid points (after initial pruning)     ...  14914 (   0.0 sec)
# of grid points (after weights+screening)   ...  14681 (   0.0 sec)
nearest neighbour list constructed           ...    0.0 sec
Grid point re-assignment to atoms done       ...    0.0 sec
Grid point division into batches done        ...    0.0 sec
Reduced shell lists constructed in    0.0 sec

Total number of grid points                  ...    14681
Total number of batches                      ...      231
Average number of points per batch           ...       63
Average number of grid points per atom       ...     2936
Average number of shells per batch           ...    25.00 (33.33%)
Average number of basis functions per batch  ...    78.45 (31.01%)
Average number of large shells per batch     ...    19.55 (78.18%)
Average number of large basis fcns per batch ...    60.09 (76.59%)
Maximum spatial batch extension              ...  45.37, 21.61, 25.13 au
Average spatial batch extension              ...   0.74,  0.53,  0.53 au

Final grid set up in    0.0 sec

-------------------------------------------------------------------------------
                         DFT-NL dispersion correction                          
-------------------------------------------------------------------------------

SC Energy -542.993169783 
NL    Energy 0.274094530 
SC+NL Energy -542.719075253 
NL done in    0.0 sec
-------------------------------------------------------------------------------

----------------
TOTAL SCF ENERGY
----------------

Total Energy       :         -542.71907525 Eh          -14768.13684 eV

Components:
Nuclear Repulsion  :          431.54783902 Eh           11743.01370 eV
Electronic Energy  :         -974.26691428 Eh          -26511.15054 eV
One Electron Energy:        -1788.02326102 Eh          -48654.58648 eV
Two Electron Energy:          813.75634675 Eh           22143.43595 eV

Virial components:
Potential Energy   :         -727.04543053 Eh          -19783.91196 eV
Kinetic Energy     :          184.32635528 Eh            5015.77512 eV
Virial Ratio       :            3.94433791


DFT components:
N(Alpha)           :       37.999998951402 electrons
N(Beta)            :       36.999998331699 electrons
N(Total)           :       74.999997283101 electrons
E(X)               :      -30.344723587061 Eh       
E(C)               :       -3.460693129621 Eh       
NL Energy, E(C,NL) :        0.274094529951 Eh       
E(XC)              :      -33.531322186731 Eh       
DFET-embed. en.    :        0.000000000000 Eh       

---------------
SCF CONVERGENCE
---------------

  Last Energy change         ...   -8.3844e-07  Tolerance :   1.0000e-06
  Last MAX-Density change    ...    2.0432e-04  Tolerance :   1.0000e-05
  Last RMS-Density change    ...    3.1065e-06  Tolerance :   1.0000e-06
  Last DIIS Error            ...    3.6054e-05  Tolerance :   1.0000e-06

             **** THE GBW FILE WAS UPDATED (Au04C2_H_E.gbw) ****
             **** DENSITY FILE WAS UPDATED (Au04C2_H_E.scfp) ****
             **** ENERGY FILE WAS UPDATED (Au04C2_H_E.en.tmp) ****
----------------------
UHF SPIN CONTAMINATION
----------------------

Warning: in a DFT calculation there is little theoretical justification to 
         calculate <S**2> as in Hartree-Fock theory. We will do it anyways
         but you should keep in mind that the values have only limited relevance

Expectation value of <S**2>     :     0.766563
Ideal value S*(S+1) for S=0.5   :     0.750000
Deviation                       :     0.016563

             **** THE GBW FILE WAS UPDATED (Au04C2_H_E.gbw) ****
             **** DENSITY FILE WAS UPDATED (Au04C2_H_E.scfp) ****
----------------
ORBITAL ENERGIES
----------------
                 SPIN UP ORBITALS
  NO   OCC          E(Eh)            E(eV) 
   0   1.0000      -4.668508      -127.0366 
   1   1.0000      -4.668278      -127.0303 
   2   1.0000      -4.636729      -126.1718 
   3   1.0000      -4.636415      -126.1633 
   4   1.0000      -2.859614       -77.8141 
   5   1.0000      -2.854555       -77.6764 
   6   1.0000      -2.850460       -77.5650 
   7   1.0000      -2.848716       -77.5175 
   8   1.0000      -2.843363       -77.3718 
   9   1.0000      -2.842851       -77.3579 
  10   1.0000      -2.825453       -76.8845 
  11   1.0000      -2.819808       -76.7309 
  12   1.0000      -2.817664       -76.6725 
  13   1.0000      -2.815793       -76.6216 
  14   1.0000      -2.815350       -76.6096 
  15   1.0000      -2.814966       -76.5991 
  16   1.0000      -0.964269       -26.2391 
  17   1.0000      -0.907410       -24.6919 
  18   1.0000      -0.863052       -23.4848 
  19   1.0000      -0.862527       -23.4705 
  20   1.0000      -0.856280       -23.3006 
  21   1.0000      -0.842610       -22.9286 
  22   1.0000      -0.835812       -22.7436 
  23   1.0000      -0.833628       -22.6842 
  24   1.0000      -0.819145       -22.2901 
  25   1.0000      -0.807456       -21.9720 
  26   1.0000      -0.801929       -21.8216 
  27   1.0000      -0.796788       -21.6817 
  28   1.0000      -0.793985       -21.6054 
  29   1.0000      -0.792126       -21.5548 
  30   1.0000      -0.779059       -21.1993 
  31   1.0000      -0.776645       -21.1336 
  32   1.0000      -0.767241       -20.8777 
  33   1.0000      -0.766285       -20.8517 
  34   1.0000      -0.764954       -20.8155 
  35   1.0000      -0.754614       -20.5341 
  36   1.0000      -0.742753       -20.2113 
  37   1.0000      -0.662333       -18.0230 
  38   0.0000      -0.413342       -11.2476 
  39   0.0000      -0.399682       -10.8759 
  40   0.0000      -0.337566        -9.1856 
  41   0.0000      -0.274632        -7.4731 
  42   0.0000      -0.274245        -7.4626 
  43   0.0000      -0.265618        -7.2278 
  44   0.0000      -0.247452        -6.7335 
  45   0.0000      -0.233326        -6.3491 
  46   0.0000      -0.154261        -4.1976 
  47   0.0000      -0.144097        -3.9211 
  48   0.0000      -0.140168        -3.8142 
  49   0.0000      -0.133370        -3.6292 
  50   0.0000      -0.127679        -3.4743 
  51   0.0000      -0.122846        -3.3428 
  52   0.0000      -0.115440        -3.1413 
  53   0.0000      -0.084161        -2.2901 
  54   0.0000      -0.068360        -1.8602 
  55   0.0000      -0.059882        -1.6295 
  56   0.0000      -0.050879        -1.3845 
  57   0.0000      -0.041446        -1.1278 
  58   0.0000      -0.036393        -0.9903 
  59   0.0000      -0.032863        -0.8942 
  60   0.0000      -0.019326        -0.5259 
  61   0.0000      -0.001103        -0.0300 
  62   0.0000       0.027523         0.7489 
  63   0.0000       0.028882         0.7859 
  64   0.0000       0.031881         0.8675 
  65   0.0000       0.049980         1.3600 
  66   0.0000       0.050499         1.3741 
  67   0.0000       0.064224         1.7476 
  68   0.0000       0.070556         1.9199 
  69   0.0000       0.092651         2.5212 
  70   0.0000       0.094608         2.5744 
  71   0.0000       0.098795         2.6884 
  72   0.0000       0.111540         3.0352 
  73   0.0000       0.113738         3.0950 
  74   0.0000       0.134751         3.6668 
  75   0.0000       0.143632         3.9084 
  76   0.0000       0.166928         4.5423 
  77   0.0000       0.191495         5.2108 
  78   0.0000       0.227256         6.1840 
  79   0.0000       0.228913         6.2290 
  80   0.0000       0.235803         6.4165 
  81   0.0000       0.249529         6.7900 
  82   0.0000       0.249762         6.7964 
  83   0.0000       0.250439         6.8148 
  84   0.0000       0.254147         6.9157 
  85   0.0000       0.280709         7.6385 
  86   0.0000       0.288807         7.8588 
  87   0.0000       0.297779         8.1030 
  88   0.0000       0.301879         8.2145 
  89   0.0000       0.310351         8.4451 
  90   0.0000       0.311676         8.4811 
  91   0.0000       0.327213         8.9039 
  92   0.0000       0.339848         9.2477 
  93   0.0000       0.527333        14.3495 
  94   0.0000       0.574305        15.6276 
  95   0.0000       0.639249        17.3949 
  96   0.0000       0.658424        17.9166 
  97   0.0000       0.664464        18.0810 
  98   0.0000       0.673388        18.3238 
  99   0.0000       0.676066        18.3967 
 100   0.0000       0.693623        18.8744 
 101   0.0000       0.732643        19.9362 
 102   0.0000       0.771759        21.0006 
 103   0.0000       0.784054        21.3352 
 104   0.0000       0.800573        21.7847 
 105   0.0000       0.800814        21.7913 
 106   0.0000       0.832688        22.6586 
 107   0.0000       0.860247        23.4085 
 108   0.0000       0.862561        23.4715 
 109   0.0000       0.882425        24.0120 
 110   0.0000       0.892494        24.2860 
 111   0.0000       0.910375        24.7726 
 112   0.0000       0.919233        25.0136 
 113   0.0000       0.920566        25.0499 
 114   0.0000       0.925691        25.1893 
 115   0.0000       0.926676        25.2161 
 116   0.0000       0.954309        25.9681 
 117   0.0000       0.976461        26.5709 
 118   0.0000       0.982716        26.7411 
 119   0.0000       0.990586        26.9552 
 120   0.0000       0.998376        27.1672 
 121   0.0000       1.008581        27.4449 
 122   0.0000       1.025856        27.9150 
 123   0.0000       1.057869        28.7861 
 124   0.0000       1.062202        28.9040 
 125   0.0000       1.063509        28.9396 
 126   0.0000       1.080312        29.3968 
 127   0.0000       1.097182        29.8558 
 128   0.0000       1.118884        30.4464 
 129   0.0000       1.129612        30.7383 
 130   0.0000       1.132422        30.8148 
 131   0.0000       1.176636        32.0179 
 132   0.0000       1.196118        32.5480 
 133   0.0000       1.200555        32.6688 
 134   0.0000       1.207280        32.8517 
 135   0.0000       1.210139        32.9296 
 136   0.0000       1.242990        33.8235 
 137   0.0000       1.255360        34.1601 
 138   0.0000       1.266229        34.4559 
 139   0.0000       1.280024        34.8312 
 140   0.0000       1.280119        34.8338 
 141   0.0000       1.286776        35.0150 
 142   0.0000       1.305741        35.5310 
 143   0.0000       1.307079        35.5674 
 144   0.0000       1.308434        35.6043 
 145   0.0000       1.367252        37.2048 
 146   0.0000       1.369232        37.2587 
 147   0.0000       1.374339        37.3977 
 148   0.0000       1.476738        40.1841 
 149   0.0000       1.484608        40.3982 
 150   0.0000       1.504226        40.9321 
 151   0.0000       1.586478        43.1702 
 152   0.0000       1.614340        43.9284 
 153   0.0000       1.637443        44.5571 
 154   0.0000       1.673881        45.5486 
 155   0.0000       1.730884        47.0998 
 156   0.0000       2.032091        55.2960 
 157   0.0000       2.424148        65.9644 
 158   0.0000       2.446807        66.5810 
 159   0.0000       2.470905        67.2368 
 160   0.0000       2.590288        70.4853 
 161   0.0000       2.942065        80.0576 
 162   0.0000       2.942111        80.0589 
 163   0.0000       2.957552        80.4791 
 164   0.0000       3.179908        86.5297 
 165   0.0000       3.192751        86.8792 
 166   0.0000       3.195366        86.9503 
 167   0.0000       3.198856        87.0453 
 168   0.0000       3.226632        87.8011 
 169   0.0000       3.274083        89.0923 
 170   0.0000       3.287293        89.4518 
 171   0.0000       3.307559        90.0033 
 172   0.0000       3.333080        90.6977 
 173   0.0000       3.340915        90.9109 
 174   0.0000       3.342464        90.9531 
 175   0.0000       3.392288        92.3089 
 176   0.0000       3.401132        92.5495 
 177   0.0000       3.405887        92.6789 
 178   0.0000       3.414993        92.9267 
 179   0.0000       3.448258        93.8319 
 180   0.0000       3.449604        93.8685 
 181   0.0000       3.452943        93.9594 
 182   0.0000       3.464119        94.2635 
 183   0.0000       3.515147        95.6520 
 184   0.0000       3.533168        96.1424 
 185   0.0000       3.539392        96.3118 
 186   0.0000       3.539903        96.3256 
 187   0.0000       3.543359        96.4197 
 188   0.0000       3.578676        97.3807 
 189   0.0000       3.583826        97.5209 
 190   0.0000       3.586725        97.5998 
 191   0.0000       3.659946        99.5922 
 192   0.0000       3.680432       100.1497 
 193   0.0000       3.682156       100.1965 
 194   0.0000       3.690970       100.4364 
 195   0.0000       3.823962       104.0553 
 196   0.0000       3.825612       104.1002 
 197   0.0000       3.827120       104.1412 
 198   0.0000       3.827756       104.1585 
 199   0.0000       3.834835       104.3512 
 200   0.0000       3.836307       104.3912 
 201   0.0000       3.839250       104.4713 
 202   0.0000       3.839515       104.4785 
 203   0.0000       3.844653       104.6183 
 204   0.0000       3.846660       104.6729 
 205   0.0000       3.848096       104.7120 
 206   0.0000       3.848309       104.7178 
 207   0.0000       3.851009       104.7913 
 208   0.0000       3.851269       104.7983 
 209   0.0000       3.854652       104.8904 
 210   0.0000       3.855678       104.9183 
 211   0.0000       3.858045       104.9827 
 212   0.0000       3.858056       104.9830 
 213   0.0000       3.858346       104.9909 
 214   0.0000       3.859029       105.0095 
 215   0.0000       3.860678       105.0544 
 216   0.0000       3.860724       105.0556 
 217   0.0000       3.864471       105.1576 
 218   0.0000       3.893453       105.9462 
 219   0.0000       3.905772       106.2815 
 220   0.0000       3.905857       106.2838 
 221   0.0000       3.909345       106.3787 
 222   0.0000       3.917504       106.6007 
 223   0.0000       3.934464       107.0622 
 224   0.0000       3.935655       107.0946 
 225   0.0000       4.012807       109.1940 
 226   0.0000       4.089402       111.2783 
 227   0.0000       4.093924       111.4013 
 228   0.0000       4.107634       111.7744 
 229   0.0000       4.172125       113.5293 
 230   0.0000       4.351669       118.4149 
 231   0.0000       4.873275       132.6085 
 232   0.0000       4.992496       135.8527 
 233   0.0000      27.256984       741.7003 
 234   0.0000      27.320036       743.4160 
 235   0.0000      27.486119       747.9353 
 236   0.0000      27.615129       751.4459 
 237   0.0000      28.094477       764.4896 
 238   0.0000      28.558091       777.1052 
 239   0.0000      28.701604       781.0104 
 240   0.0000      29.263518       796.3008 
 241   0.0000      29.581598       804.9562 
 242   0.0000      29.615801       805.8869 
 243   0.0000      30.190074       821.5137 
 244   0.0000      30.812631       838.4543 
 245   0.0000      43.896107      1194.4738 
 246   0.0000      44.282651      1204.9922 
 247   0.0000      44.309909      1205.7339 
 248   0.0000      44.313586      1205.8340 
 249   0.0000     204.910691      5575.9034 
 250   0.0000     205.079313      5580.4918 
 251   0.0000     205.082810      5580.5870 
 252   0.0000     205.098596      5581.0165 

                 SPIN DOWN ORBITALS
  NO   OCC          E(Eh)            E(eV) 
   0   1.0000      -4.664283      -126.9216 
   1   1.0000      -4.664082      -126.9161 
   2   1.0000      -4.635573      -126.1404 
   3   1.0000      -4.635269      -126.1321 
   4   1.0000      -2.852240       -77.6134 
   5   1.0000      -2.846934       -77.4690 
   6   1.0000      -2.844656       -77.4070 
   7   1.0000      -2.843720       -77.3815 
   8   1.0000      -2.841323       -77.3163 
   9   1.0000      -2.840886       -77.3044 
  10   1.0000      -2.824290       -76.8528 
  11   1.0000      -2.818245       -76.6883 
  12   1.0000      -2.815642       -76.6175 
  13   1.0000      -2.815049       -76.6014 
  14   1.0000      -2.814698       -76.5918 
  15   1.0000      -2.813985       -76.5724 
  16   1.0000      -0.942116       -25.6363 
  17   1.0000      -0.899347       -24.4725 
  18   1.0000      -0.859240       -23.3811 
  19   1.0000      -0.859005       -23.3747 
  20   1.0000      -0.852156       -23.1883 
  21   1.0000      -0.838390       -22.8138 
  22   1.0000      -0.832840       -22.6627 
  23   1.0000      -0.829816       -22.5804 
  24   1.0000      -0.810591       -22.0573 
  25   1.0000      -0.798584       -21.7306 
  26   1.0000      -0.794899       -21.6303 
  27   1.0000      -0.794770       -21.6268 
  28   1.0000      -0.787954       -21.4413 
  29   1.0000      -0.786278       -21.3957 
  30   1.0000      -0.775920       -21.1139 
  31   1.0000      -0.770184       -20.9578 
  32   1.0000      -0.766062       -20.8456 
  33   1.0000      -0.765559       -20.8319 
  34   1.0000      -0.751865       -20.4593 
  35   1.0000      -0.751625       -20.4528 
  36   1.0000      -0.737188       -20.0599 
  37   0.0000      -0.451860       -12.2957 
  38   0.0000      -0.409340       -11.1387 
  39   0.0000      -0.393911       -10.7189 
  40   0.0000      -0.316801        -8.6206 
  41   0.0000      -0.267250        -7.2722 
  42   0.0000      -0.262954        -7.1554 
  43   0.0000      -0.259516        -7.0618 
  44   0.0000      -0.244037        -6.6406 
  45   0.0000      -0.231813        -6.3080 
  46   0.0000      -0.147829        -4.0226 
  47   0.0000      -0.142861        -3.8875 
  48   0.0000      -0.138122        -3.7585 
  49   0.0000      -0.130831        -3.5601 
  50   0.0000      -0.126019        -3.4292 
  51   0.0000      -0.120883        -3.2894 
  52   0.0000      -0.107814        -2.9338 
  53   0.0000      -0.080636        -2.1942 
  54   0.0000      -0.065795        -1.7904 
  55   0.0000      -0.054946        -1.4952 
  56   0.0000      -0.048556        -1.3213 
  57   0.0000      -0.038959        -1.0601 
  58   0.0000      -0.034744        -0.9454 
  59   0.0000      -0.030403        -0.8273 
  60   0.0000      -0.017467        -0.4753 
  61   0.0000      -0.000473        -0.0129 
  62   0.0000       0.029032         0.7900 
  63   0.0000       0.031093         0.8461 
  64   0.0000       0.034728         0.9450 
  65   0.0000       0.050094         1.3631 
  66   0.0000       0.052729         1.4348 
  67   0.0000       0.066841         1.8188 
  68   0.0000       0.073758         2.0071 
  69   0.0000       0.092700         2.5225 
  70   0.0000       0.095737         2.6051 
  71   0.0000       0.102238         2.7820 
  72   0.0000       0.111681         3.0390 
  73   0.0000       0.119232         3.2445 
  74   0.0000       0.134230         3.6526 
  75   0.0000       0.143410         3.9024 
  76   0.0000       0.166421         4.5285 
  77   0.0000       0.191707         5.2166 
  78   0.0000       0.228112         6.2072 
  79   0.0000       0.229887         6.2556 
  80   0.0000       0.235894         6.4190 
  81   0.0000       0.250343         6.8122 
  82   0.0000       0.250590         6.8189 
  83   0.0000       0.252276         6.8648 
  84   0.0000       0.254832         6.9343 
  85   0.0000       0.282950         7.6995 
  86   0.0000       0.289896         7.8885 
  87   0.0000       0.299420         8.1476 
  88   0.0000       0.301695         8.2095 
  89   0.0000       0.312205         8.4955 
  90   0.0000       0.312893         8.5143 
  91   0.0000       0.328691         8.9441 
  92   0.0000       0.343167         9.3380 
  93   0.0000       0.534336        14.5400 
  94   0.0000       0.579719        15.7749 
  95   0.0000       0.643338        17.5061 
  96   0.0000       0.661261        17.9938 
  97   0.0000       0.666324        18.1316 
  98   0.0000       0.678580        18.4651 
  99   0.0000       0.679350        18.4860 
 100   0.0000       0.695782        18.9332 
 101   0.0000       0.734723        19.9928 
 102   0.0000       0.774421        21.0731 
 103   0.0000       0.789131        21.4734 
 104   0.0000       0.803082        21.8530 
 105   0.0000       0.803772        21.8717 
 106   0.0000       0.836354        22.7583 
 107   0.0000       0.862231        23.4625 
 108   0.0000       0.863302        23.4917 
 109   0.0000       0.888097        24.1664 
 110   0.0000       0.895167        24.3587 
 111   0.0000       0.912907        24.8415 
 112   0.0000       0.921862        25.0852 
 113   0.0000       0.922015        25.0893 
 114   0.0000       0.928138        25.2559 
 115   0.0000       0.931088        25.3362 
 116   0.0000       0.958447        26.0807 
 117   0.0000       0.981241        26.7009 
 118   0.0000       0.986066        26.8322 
 119   0.0000       0.993633        27.0381 
 120   0.0000       1.000276        27.2189 
 121   0.0000       1.011119        27.5139 
 122   0.0000       1.031846        28.0780 
 123   0.0000       1.059120        28.8201 
 124   0.0000       1.065153        28.9843 
 125   0.0000       1.067667        29.0527 
 126   0.0000       1.085227        29.5305 
 127   0.0000       1.099495        29.9188 
 128   0.0000       1.120185        30.4818 
 129   0.0000       1.134664        30.8758 
 130   0.0000       1.135825        30.9074 
 131   0.0000       1.180605        32.1259 
 132   0.0000       1.200388        32.6642 
 133   0.0000       1.202489        32.7214 
 134   0.0000       1.211864        32.9765 
 135   0.0000       1.211876        32.9768 
 136   0.0000       1.246171        33.9100 
 137   0.0000       1.257633        34.2219 
 138   0.0000       1.269439        34.5432 
 139   0.0000       1.283145        34.9162 
 140   0.0000       1.283481        34.9253 
 141   0.0000       1.288228        35.0545 
 142   0.0000       1.310121        35.6502 
 143   0.0000       1.310166        35.6514 
 144   0.0000       1.310520        35.6611 
 145   0.0000       1.369961        37.2785 
 146   0.0000       1.372161        37.3384 
 147   0.0000       1.376871        37.4666 
 148   0.0000       1.478818        40.2407 
 149   0.0000       1.486730        40.4560 
 150   0.0000       1.506911        41.0051 
 151   0.0000       1.588392        43.2223 
 152   0.0000       1.624469        44.2041 
 153   0.0000       1.641513        44.6678 
 154   0.0000       1.677292        45.6414 
 155   0.0000       1.733779        47.1785 
 156   0.0000       2.034642        55.3654 
 157   0.0000       2.427654        66.0598 
 158   0.0000       2.449020        66.6412 
 159   0.0000       2.472800        67.2883 
 160   0.0000       2.618635        71.2567 
 161   0.0000       2.954715        80.4019 
 162   0.0000       2.955018        80.4101 
 163   0.0000       2.969162        80.7950 
 164   0.0000       3.181568        86.5749 
 165   0.0000       3.194628        86.9302 
 166   0.0000       3.196960        86.9937 
 167   0.0000       3.210985        87.3753 
 168   0.0000       3.237473        88.0961 
 169   0.0000       3.275432        89.1290 
 170   0.0000       3.289730        89.5181 
 171   0.0000       3.311856        90.1202 
 172   0.0000       3.335370        90.7600 
 173   0.0000       3.342226        90.9466 
 174   0.0000       3.343998        90.9948 
 175   0.0000       3.395728        92.4025 
 176   0.0000       3.405594        92.6709 
 177   0.0000       3.411564        92.8334 
 178   0.0000       3.417702        93.0004 
 179   0.0000       3.451649        93.9241 
 180   0.0000       3.452064        93.9354 
 181   0.0000       3.455244        94.0220 
 182   0.0000       3.466490        94.3280 
 183   0.0000       3.518217        95.7355 
 184   0.0000       3.541161        96.3599 
 185   0.0000       3.543259        96.4170 
 186   0.0000       3.544536        96.4517 
 187   0.0000       3.546082        96.4938 
 188   0.0000       3.581766        97.4648 
 189   0.0000       3.588438        97.6464 
 190   0.0000       3.607601        98.1678 
 191   0.0000       3.664379        99.7128 
 192   0.0000       3.684111       100.2497 
 193   0.0000       3.685834       100.2966 
 194   0.0000       3.693251       100.4985 
 195   0.0000       3.825518       104.0976 
 196   0.0000       3.827092       104.1405 
 197   0.0000       3.829550       104.2074 
 198   0.0000       3.831036       104.2478 
 199   0.0000       3.839135       104.4682 
 200   0.0000       3.839246       104.4712 
 201   0.0000       3.840981       104.5184 
 202   0.0000       3.842441       104.5581 
 203   0.0000       3.846359       104.6647 
 204   0.0000       3.848232       104.7157 
 205   0.0000       3.849346       104.7460 
 206   0.0000       3.850278       104.7714 
 207   0.0000       3.853195       104.8508 
 208   0.0000       3.853752       104.8659 
 209   0.0000       3.857759       104.9750 
 210   0.0000       3.858419       104.9929 
 211   0.0000       3.858618       104.9983 
 212   0.0000       3.859313       105.0172 
 213   0.0000       3.859352       105.0183 
 214   0.0000       3.862840       105.1132 
 215   0.0000       3.863435       105.1294 
 216   0.0000       3.864214       105.1506 
 217   0.0000       3.866771       105.2202 
 218   0.0000       3.895190       105.9935 
 219   0.0000       3.905742       106.2806 
 220   0.0000       3.907302       106.3231 
 221   0.0000       3.912817       106.4732 
 222   0.0000       3.920555       106.6837 
 223   0.0000       3.938575       107.1741 
 224   0.0000       3.953454       107.5790 
 225   0.0000       4.016885       109.3050 
 226   0.0000       4.100828       111.5892 
 227   0.0000       4.107856       111.7805 
 228   0.0000       4.108817       111.8066 
 229   0.0000       4.181194       113.7761 
 230   0.0000       4.364211       118.7562 
 231   0.0000       4.886033       132.9557 
 232   0.0000       5.003644       136.1561 
 233   0.0000      27.257785       741.7220 
 234   0.0000      27.320809       743.4370 
 235   0.0000      27.487093       747.9618 
 236   0.0000      27.615911       751.4671 
 237   0.0000      28.095311       764.5123 
 238   0.0000      28.559330       777.1389 
 239   0.0000      28.703361       781.0582 
 240   0.0000      29.265243       796.3478 
 241   0.0000      29.583410       805.0055 
 242   0.0000      29.616778       805.9135 
 243   0.0000      30.192191       821.5713 
 244   0.0000      30.814935       838.5170 
 245   0.0000      43.896627      1194.4879 
 246   0.0000      44.283161      1205.0061 
 247   0.0000      44.310433      1205.7482 
 248   0.0000      44.314134      1205.8489 
 249   0.0000     204.911424      5575.9233 
 250   0.0000     205.079994      5580.5103 
 251   0.0000     205.083747      5580.6125 
 252   0.0000     205.099072      5581.0295 

                    ********************************
                    * MULLIKEN POPULATION ANALYSIS *
                    ********************************

--------------------------------------------
MULLIKEN ATOMIC CHARGES AND SPIN POPULATIONS
--------------------------------------------
   0 Au:    0.491964    0.154796
   1 Au:    0.491964    0.154797
   2 Au:    0.439381    0.226532
   3 Au:    0.439391    0.226534
   4 H :    0.137301    0.237340
Sum of atomic charges         :    2.0000000
Sum of atomic spin populations:    1.0000000

-----------------------------------------------------
MULLIKEN REDUCED ORBITAL CHARGES AND SPIN POPULATIONS
-----------------------------------------------------
CHARGE
  0 Aus       :     2.571443  s :     2.571443
      pz      :     2.108718  p :     6.239976
      px      :     2.021629
      py      :     2.109629
      dz2     :     1.966437  d :     9.684534
      dxz     :     1.966166
      dyz     :     1.833512
      dx2y2   :     1.939464
      dxy     :     1.978955
      f0      :     0.001310  f :     0.011866
      f+1     :     0.001050
      f-1     :     0.002031
      f+2     :     0.002944
      f-2     :     0.001200
      f+3     :     0.001393
      f-3     :     0.001938
      g0      :     0.000019  g :     0.000218
      g+1     :     0.000008
      g-1     :     0.000018
      g+2     :     0.000042
      g-2     :     0.000016
      g+3     :     0.000015
      g-3     :     0.000047
      g+4     :     0.000030
      g-4     :     0.000023
  1 Aus       :     2.571442  s :     2.571442
      pz      :     2.108718  p :     6.239976
      px      :     2.021629
      py      :     2.109629
      dz2     :     1.966437  d :     9.684534
      dxz     :     1.966166
      dyz     :     1.833512
      dx2y2   :     1.939464
      dxy     :     1.978955
      f0      :     0.001310  f :     0.011866
      f+1     :     0.001050
      f-1     :     0.002031
      f+2     :     0.002944
      f-2     :     0.001200
      f+3     :     0.001393
      f-3     :     0.001938
      g0      :     0.000019  g :     0.000218
      g+1     :     0.000008
      g-1     :     0.000018
      g+2     :     0.000042
      g-2     :     0.000016
      g+3     :     0.000015
      g-3     :     0.000047
      g+4     :     0.000030
      g-4     :     0.000023
  2 Aus       :     2.619071  s :     2.619071
      pz      :     2.041133  p :     6.132010
      px      :     2.074084
      py      :     2.016793
      dz2     :     1.956477  d :     9.799853
      dxz     :     1.973923
      dyz     :     1.951610
      dx2y2   :     1.943807
      dxy     :     1.974036
      f0      :     0.001148  f :     0.009544
      f+1     :     0.001707
      f-1     :     0.000957
      f+2     :     0.001475
      f-2     :     0.001134
      f+3     :     0.001556
      f-3     :     0.001567
      g0      :     0.000011  g :     0.000142
      g+1     :     0.000020
      g-1     :     0.000007
      g+2     :     0.000018
      g-2     :     0.000016
      g+3     :     0.000016
      g-3     :     0.000010
      g+4     :     0.000022
      g-4     :     0.000021
  3 Aus       :     2.619065  s :     2.619065
      pz      :     2.041132  p :     6.132006
      px      :     2.074081
      py      :     2.016793
      dz2     :     1.956477  d :     9.799853
      dxz     :     1.973923
      dyz     :     1.951610
      dx2y2   :     1.943807
      dxy     :     1.974036
      f0      :     0.001148  f :     0.009544
      f+1     :     0.001707
      f-1     :     0.000957
      f+2     :     0.001475
      f-2     :     0.001134
      f+3     :     0.001556
      f-3     :     0.001567
      g0      :     0.000011  g :     0.000142
      g+1     :     0.000020
      g-1     :     0.000007
      g+2     :     0.000018
      g-2     :     0.000016
      g+3     :     0.000016
      g-3     :     0.000010
      g+4     :     0.000022
      g-4     :     0.000021
  4 H s       :     0.835941  s :     0.835941
      pz      :    -0.011446  p :     0.022063
      px      :     0.007852
      py      :     0.025657
      dz2     :     0.000908  d :     0.004695
      dxz     :     0.000687
      dyz     :     0.001587
      dx2y2   :     0.000808
      dxy     :     0.000705

SPIN
  0 Aus       :    -0.012217  s :    -0.012217
      pz      :     0.062130  p :     0.061981
      px      :    -0.000526
      py      :     0.000378
      dz2     :    -0.001456  d :     0.104702
      dxz     :     0.000682
      dyz     :     0.090907
      dx2y2   :     0.013775
      dxy     :     0.000794
      f0      :    -0.000004  f :     0.000318
      f+1     :     0.000003
      f-1     :     0.000005
      f+2     :     0.000279
      f-2     :    -0.000038
      f+3     :    -0.000017
      f-3     :     0.000089
      g0      :     0.000001  g :     0.000013
      g+1     :    -0.000000
      g-1     :     0.000000
      g+2     :     0.000006
      g-2     :     0.000000
      g+3     :     0.000001
      g-3     :     0.000003
      g+4     :     0.000001
      g-4     :     0.000001
  1 Aus       :    -0.012217  s :    -0.012217
      pz      :     0.062130  p :     0.061981
      px      :    -0.000526
      py      :     0.000378
      dz2     :    -0.001456  d :     0.104702
      dxz     :     0.000682
      dyz     :     0.090907
      dx2y2   :     0.013775
      dxy     :     0.000794
      f0      :    -0.000004  f :     0.000318
      f+1     :     0.000003
      f-1     :     0.000005
      f+2     :     0.000279
      f-2     :    -0.000038
      f+3     :    -0.000017
      f-3     :     0.000089
      g0      :     0.000001  g :     0.000013
      g+1     :    -0.000000
      g-1     :     0.000000
      g+2     :     0.000006
      g-2     :     0.000000
      g+3     :     0.000001
      g-3     :     0.000003
      g+4     :     0.000001
      g-4     :     0.000001
  2 Aus       :     0.205919  s :     0.205919
      pz      :    -0.008360  p :     0.010102
      px      :     0.017868
      py      :     0.000594
      dz2     :     0.012064  d :     0.010431
      dxz     :     0.004822
      dyz     :     0.000773
      dx2y2   :    -0.006076
      dxy     :    -0.001152
      f0      :     0.000019  f :     0.000080
      f+1     :     0.000067
      f-1     :    -0.000030
      f+2     :     0.000025
      f-2     :    -0.000033
      f+3     :     0.000011
      f-3     :     0.000020
      g0      :    -0.000000  g :     0.000000
      g+1     :     0.000000
      g-1     :     0.000000
      g+2     :    -0.000000
      g-2     :     0.000000
      g+3     :     0.000000
      g-3     :    -0.000000
      g+4     :    -0.000000
      g-4     :    -0.000000
  3 Aus       :     0.205921  s :     0.205921
      pz      :    -0.008360  p :     0.010103
      px      :     0.017868
      py      :     0.000594
      dz2     :     0.012064  d :     0.010431
      dxz     :     0.004822
      dyz     :     0.000773
      dx2y2   :    -0.006076
      dxy     :    -0.001152
      f0      :     0.000019  f :     0.000080
      f+1     :     0.000067
      f-1     :    -0.000030
      f+2     :     0.000025
      f-2     :    -0.000033
      f+3     :     0.000011
      f-3     :     0.000020
      g0      :    -0.000000  g :     0.000000
      g+1     :     0.000000
      g-1     :     0.000000
      g+2     :    -0.000000
      g-2     :     0.000000
      g+3     :     0.000000
      g-3     :    -0.000000
      g+4     :    -0.000000
      g-4     :    -0.000000
  4 H s       :     0.236075  s :     0.236075
      pz      :     0.000291  p :     0.001133
      px      :     0.000928
      py      :    -0.000087
      dz2     :     0.000061  d :     0.000132
      dxz     :     0.000002
      dyz     :     0.000011
      dx2y2   :     0.000031
      dxy     :     0.000027


                     *******************************
                     * LOEWDIN POPULATION ANALYSIS *
                     *******************************

-------------------------------------------
LOEWDIN ATOMIC CHARGES AND SPIN POPULATIONS
-------------------------------------------
   0 Au:    0.578184    0.262399
   1 Au:    0.578184    0.262399
   2 Au:    0.483948    0.159512
   3 Au:    0.483949    0.159512
   4 H :   -0.124264    0.156176

----------------------------------------------------
LOEWDIN REDUCED ORBITAL CHARGES AND SPIN POPULATIONS
----------------------------------------------------
CHARGE
  0 Aus       :     2.317035  s :     2.317035
      pz      :     2.207039  p :     6.369096
      px      :     2.031039
      py      :     2.131018
      dz2     :     1.958023  d :     9.713904
      dxz     :     1.971688
      dyz     :     1.861305
      dx2y2   :     1.953418
      dxy     :     1.969471
      f0      :     0.002109  f :     0.021484
      f+1     :     0.001841
      f-1     :     0.003680
      f+2     :     0.005592
      f-2     :     0.002384
      f+3     :     0.001896
      f-3     :     0.003982
      g0      :     0.000029  g :     0.000297
      g+1     :     0.000011
      g-1     :     0.000022
      g+2     :     0.000060
      g-2     :     0.000026
      g+3     :     0.000015
      g-3     :     0.000068
      g+4     :     0.000042
      g-4     :     0.000024
  1 Aus       :     2.317035  s :     2.317035
      pz      :     2.207039  p :     6.369096
      px      :     2.031039
      py      :     2.131018
      dz2     :     1.958023  d :     9.713904
      dxz     :     1.971688
      dyz     :     1.861305
      dx2y2   :     1.953418
      dxy     :     1.969472
      f0      :     0.002109  f :     0.021484
      f+1     :     0.001841
      f-1     :     0.003680
      f+2     :     0.005592
      f-2     :     0.002384
      f+3     :     0.001896
      f-3     :     0.003982
      g0      :     0.000029  g :     0.000297
      g+1     :     0.000011
      g-1     :     0.000022
      g+2     :     0.000060
      g-2     :     0.000026
      g+3     :     0.000015
      g-3     :     0.000068
      g+4     :     0.000042
      g-4     :     0.000024
  2 Aus       :     2.403642  s :     2.403642
      pz      :     2.089464  p :     6.232708
      px      :     2.113400
      py      :     2.029844
      dz2     :     1.970822  d :     9.862747
      dxz     :     1.982610
      dyz     :     1.966697
      dx2y2   :     1.966326
      dxy     :     1.976292
      f0      :     0.001609  f :     0.016746
      f+1     :     0.003663
      f-1     :     0.001694
      f+2     :     0.002057
      f-2     :     0.002239
      f+3     :     0.003057
      f-3     :     0.002427
      g0      :     0.000018  g :     0.000208
      g+1     :     0.000028
      g-1     :     0.000010
      g+2     :     0.000026
      g-2     :     0.000026
      g+3     :     0.000022
      g-3     :     0.000014
      g+4     :     0.000035
      g-4     :     0.000029
  3 Aus       :     2.403642  s :     2.403642
      pz      :     2.089464  p :     6.232708
      px      :     2.113400
      py      :     2.029844
      dz2     :     1.970822  d :     9.862747
      dxz     :     1.982610
      dyz     :     1.966697
      dx2y2   :     1.966326
      dxy     :     1.976292
      f0      :     0.001609  f :     0.016746
      f+1     :     0.003663
      f-1     :     0.001694
      f+2     :     0.002057
      f-2     :     0.002239
      f+3     :     0.003057
      f-3     :     0.002427
      g0      :     0.000018  g :     0.000208
      g+1     :     0.000028
      g-1     :     0.000010
      g+2     :     0.000026
      g-2     :     0.000026
      g+3     :     0.000022
      g-3     :     0.000014
      g+4     :     0.000035
      g-4     :     0.000029
  4 H s       :     0.787470  s :     0.787470
      pz      :     0.127288  p :     0.307686
      px      :     0.050227
      py      :     0.130171
      dz2     :     0.005029  d :     0.029109
      dxz     :     0.003047
      dyz     :     0.012451
      dx2y2   :     0.004577
      dxy     :     0.004004

SPIN
  0 Aus       :    -0.001187  s :    -0.001187
      pz      :     0.131153  p :     0.135520
      px      :     0.000785
      py      :     0.003582
      dz2     :    -0.000356  d :     0.126313
      dxz     :     0.001777
      dyz     :     0.107972
      dx2y2   :     0.015657
      dxy     :     0.001263
      f0      :     0.000135  f :     0.001720
      f+1     :     0.000049
      f-1     :     0.000171
      f+2     :     0.000883
      f-2     :     0.000054
      f+3     :    -0.000010
      f-3     :     0.000438
      g0      :     0.000004  g :     0.000033
      g+1     :    -0.000000
      g-1     :     0.000000
      g+2     :     0.000016
      g-2     :     0.000001
      g+3     :     0.000001
      g-3     :     0.000008
      g+4     :     0.000003
      g-4     :     0.000000
  1 Aus       :    -0.001187  s :    -0.001187
      pz      :     0.131153  p :     0.135520
      px      :     0.000785
      py      :     0.003582
      dz2     :    -0.000356  d :     0.126313
      dxz     :     0.001777
      dyz     :     0.107972
      dx2y2   :     0.015657
      dxy     :     0.001263
      f0      :     0.000135  f :     0.001720
      f+1     :     0.000049
      f-1     :     0.000171
      f+2     :     0.000883
      f-2     :     0.000054
      f+3     :    -0.000010
      f-3     :     0.000438
      g0      :     0.000004  g :     0.000033
      g+1     :    -0.000000
      g-1     :     0.000000
      g+2     :     0.000016
      g-2     :     0.000001
      g+3     :     0.000001
      g-3     :     0.000008
      g+4     :     0.000003
      g-4     :     0.000000
  2 Aus       :     0.125291  s :     0.125291
      pz      :     0.003709  p :     0.016932
      px      :     0.013131
      py      :     0.000091
      dz2     :     0.017169  d :     0.017057
      dxz     :     0.004441
      dyz     :     0.000570
      dx2y2   :    -0.003885
      dxy     :    -0.001239
      f0      :     0.000025  f :     0.000232
      f+1     :     0.000297
      f-1     :    -0.000040
      f+2     :     0.000019
      f-2     :    -0.000059
      f+3     :    -0.000029
      f-3     :     0.000018
      g0      :    -0.000000  g :     0.000000
      g+1     :     0.000001
      g-1     :     0.000000
      g+2     :    -0.000000
      g-2     :     0.000000
      g+3     :    -0.000000
      g-3     :    -0.000000
      g+4     :    -0.000000
      g-4     :     0.000000
  3 Aus       :     0.125291  s :     0.125291
      pz      :     0.003709  p :     0.016932
      px      :     0.013131
      py      :     0.000091
      dz2     :     0.017169  d :     0.017057
      dxz     :     0.004441
      dyz     :     0.000570
      dx2y2   :    -0.003885
      dxy     :    -0.001239
      f0      :     0.000025  f :     0.000232
      f+1     :     0.000297
      f-1     :    -0.000040
      f+2     :     0.000019
      f-2     :    -0.000059
      f+3     :    -0.000029
      f-3     :     0.000018
      g0      :    -0.000000  g :     0.000000
      g+1     :     0.000001
      g-1     :     0.000000
      g+2     :    -0.000000
      g-2     :     0.000000
      g+3     :    -0.000000
      g-3     :    -0.000000
      g+4     :    -0.000000
      g-4     :     0.000000
  4 H s       :     0.158804  s :     0.158804
      pz      :    -0.000744  p :    -0.002470
      px      :     0.000785
      py      :    -0.002510
      dz2     :     0.000228  d :    -0.000157
      dxz     :    -0.000015
      dyz     :    -0.000441
      dx2y2   :     0.000055
      dxy     :     0.000015


                      *****************************
                      * MAYER POPULATION ANALYSIS *
                      *****************************

  NA   - Mulliken gross atomic population
  ZA   - Total nuclear charge
  QA   - Mulliken gross atomic charge
  VA   - Mayer's total valence
  BVA  - Mayer's bonded valence
  FA   - Mayer's free valence

  ATOM       NA         ZA         QA         VA         BVA        FA
  0 Au    18.5080    19.0000     0.4920     1.6994     1.6368     0.0627
  1 Au    18.5080    19.0000     0.4920     1.6994     1.6368     0.0627
  2 Au    18.5606    19.0000     0.4394     1.3426     1.2673     0.0753
  3 Au    18.5606    19.0000     0.4394     1.3426     1.2672     0.0753
  4 H      0.8627     1.0000     0.1373     1.0138     0.9579     0.0559

  Mayer bond orders larger than 0.100000
B(  0-Au,  1-Au) :   0.5353 B(  0-Au,  2-Au) :   0.3182 B(  0-Au,  3-Au) :   0.3182 
B(  0-Au,  4-H ) :   0.4650 B(  1-Au,  2-Au) :   0.3182 B(  1-Au,  3-Au) :   0.3182 
B(  1-Au,  4-H ) :   0.4650 B(  2-Au,  3-Au) :   0.6169 

-------
TIMINGS
-------

Total SCF time: 0 days 0 hours 0 min 30 sec 

Total time                  ....      30.445 sec
Sum of individual times     ....      30.096 sec  ( 98.9%)

Fock matrix formation       ....      28.037 sec  ( 92.1%)
  XC integration            ....       1.294 sec  (  4.6% of F)
    Basis function eval.    ....       0.135 sec  ( 10.4% of XC)
    Density eval.           ....       0.219 sec  ( 16.9% of XC)
    XC-Functional eval.     ....       0.053 sec  (  4.1% of XC)
    XC-Potential eval.      ....       0.362 sec  ( 28.0% of XC)
Diagonalization             ....       0.319 sec  (  1.0%)
Density matrix formation    ....       0.030 sec  (  0.1%)
Population analysis         ....       0.019 sec  (  0.1%)
Initial guess               ....       1.091 sec  (  3.6%)
Orbital Transformation      ....       0.000 sec  (  0.0%)
Orbital Orthonormalization  ....       0.000 sec  (  0.0%)
DIIS solution               ....       0.112 sec  (  0.4%)
Grid generation             ....       0.487 sec  (  1.6%)

-------------------------   --------------------
FINAL SINGLE POINT ENERGY      -542.719075252557
-------------------------   --------------------


                            ***************************************
                            *     ORCA property calculations      *
                            ***************************************

                                    ---------------------
                                    Active property flags
                                    ---------------------
   (+) Dipole Moment


------------------------------------------------------------------------------
                       ORCA ELECTRIC PROPERTIES CALCULATION
------------------------------------------------------------------------------

Dipole Moment Calculation                       ... on
Quadrupole Moment Calculation                   ... off
Polarizability Calculation                      ... off
GBWName                                         ... Au04C2_H_E.gbw
Electron density file                           ... Au04C2_H_E.scfp
The origin for moment calculation is the CENTER OF MASS  = ( 0.000000,  0.000000 -0.007765)

-------------
DIPOLE MOMENT
-------------
                                X             Y             Z
Electronic contribution:     -0.00000      -0.00000      -3.55934
Nuclear contribution   :      0.00000       0.00000       3.73018
                        -----------------------------------------
Total Dipole Moment    :     -0.00000      -0.00000       0.17084
                        -----------------------------------------
Magnitude (a.u.)       :      0.17084
Magnitude (Debye)      :      0.43424



--------------------
Rotational spectrum 
--------------------
 
Rotational constants in cm-1:     0.012236     0.010747     0.010533 
Rotational constants in MHz :   366.830155   322.181581   315.756842 

 Dipole components along the rotational axes: 
x,y,z [a.u.] :     0.170840    -0.000000    -0.000000 
x,y,z [Debye]:     0.434240    -0.000000    -0.000000 

 

Timings for individual modules:

Sum of individual times         ...       32.457 sec (=   0.541 min)
GTO integral calculation        ...        1.625 sec (=   0.027 min)   5.0 %
SCF iterations                  ...       30.832 sec (=   0.514 min)  95.0 %
                             ****ORCA TERMINATED NORMALLY****
TOTAL RUN TIME: 0 days 0 hours 0 minutes 32 seconds 937 msec
