
                                 *****************
                                 * O   R   C   A *
                                 *****************

           --- An Ab Initio, DFT and Semiempirical electronic structure package ---

                  #######################################################
                  #                        -***-                        #
                  #          Department of theory and spectroscopy      #
                  #               Directorship: Frank Neese             #
                  #        Max Planck Institute fuer Kohlenforschung    #
                  #                Kaiser Wilhelm Platz 1               #
                  #                 D-45470 Muelheim/Ruhr               #
                  #                      Germany                        #
                  #                                                     #
                  #                  All rights reserved                #
                  #                        -***-                        #
                  #######################################################


                         Program Version 4.2.0 -  RELEASE  -


 With contributions from (in alphabetic order):
   Daniel Aravena         : Magnetic Suceptibility
   Michael Atanasov       : Ab Initio Ligand Field Theory (pilot matlab implementation)
   Alexander A. Auer      : GIAO ZORA, VPT2
   Ute Becker             : Parallelization
   Giovanni Bistoni       : ED, misc. LED, open-shell LED, HFLED
   Martin Brehm           : Molecular dynamics
   Dmytro Bykov           : SCF Hessian
   Vijay G. Chilkuri      : MRCI spin determinant printing, contributions to CSF-ICE
   Dipayan Datta          : RHF DLPNO-CCSD density
   Achintya Kumar Dutta   : EOM-CC, STEOM-CC
   Dmitry Ganyushin       : Spin-Orbit,Spin-Spin,Magnetic field MRCI
   Miquel Garcia          : C-PCM Hessian, Gaussian charge scheme
   Yang Guo               : DLPNO-NEVPT2, CIM, IAO-localization
   Andreas Hansen         : Spin unrestricted coupled pair/coupled cluster methods
   Benjamin Helmich-Paris : CASSCF linear response (MC-RPA)
   Lee Huntington         : MR-EOM, pCC
   Robert Izsak           : Overlap fitted RIJCOSX, COSX-SCS-MP3, EOM
   Christian Kollmar      : KDIIS, OOCD, Brueckner-CCSD(T), CCSD density
   Simone Kossmann        : Meta GGA functionals, TD-DFT gradient, OOMP2, MP2 Hessian
   Martin Krupicka        : AUTO-CI
   Lucas Lang             : DCDCAS
   Dagmar Lenk            : GEPOL surface, SMD
   Dimitrios Liakos       : Extrapolation schemes; Compound Job, initial MDCI parallelization
   Dimitrios Manganas     : Further ROCIS development; embedding schemes
   Dimitrios Pantazis     : SARC Basis sets
   Taras Petrenko         : DFT Hessian,TD-DFT gradient, ASA, ECA, R-Raman, ABS, FL, XAS/XES, NRVS
   Peter Pinski           : DLPNO-MP2, DLPNO-MP2 Gradient
   Christoph Reimann      : Effective Core Potentials
   Marius Retegan         : Local ZFS, SOC
   Christoph Riplinger    : Optimizer, TS searches, QM/MM, DLPNO-CCSD(T), (RO)-DLPNO pert. Triples
   Tobias Risthaus        : Range-separated hybrids, TD-DFT gradient, RPA, STAB
   Michael Roemelt        : Original ROCIS implementation
   Masaaki Saitow         : Open-shell DLPNO-CCSD energy and density
   Barbara Sandhoefer     : DKH picture change effects
   Avijit Sen             : IP-ROCIS
   Kantharuban Sivalingam : CASSCF convergence, NEVPT2, FIC-MRCI
   Bernardo de Souza      : ESD, SOC TD-DFT
   Georgi Stoychev        : AutoAux, RI-MP2 NMR
   Willem Van den Heuvel  : Paramagnetic NMR
   Boris Wezisla          : Elementary symmetry handling
   Frank Wennmohs         : Technical directorship


 We gratefully acknowledge several colleagues who have allowed us to
 interface, adapt or use parts of their codes:
   Stefan Grimme, W. Hujo, H. Kruse,             : VdW corrections, initial TS optimization,
                  C. Bannwarth                     DFT functionals, gCP, sTDA/sTD-DF
   Ed Valeev, F. Pavosevic, A. Kumar             : LibInt (2-el integral package), F12 methods
   Garnet Chan, S. Sharma, J. Yang, R. Olivares  : DMRG
   Ulf Ekstrom                                   : XCFun DFT Library
   Mihaly Kallay                                 : mrcc  (arbitrary order and MRCC methods)
   Andreas Klamt, Michael Diedenhofen            : otool_cosmo (COSMO solvation model)
   Jiri Pittner, Ondrej Demel                    : Mk-CCSD
   Frank Weinhold                                : gennbo (NPA and NBO analysis)
   Christopher J. Cramer and Donald G. Truhlar   : smd solvation model
   Lars Goerigk                                  : TD-DFT with DH, B97 family of functionals
   V. Asgeirsson, H. Jonsson                     : NEB implementation
   FAccTs GmbH                                   : IRC, NEB, NEB-TS, Multilevel, MM, QM/MM, CI optimization
   S Lehtola, MJT Oliveira, MAL Marques          : LibXC Library


 Your calculation uses the libint2 library for the computation of 2-el integrals
 For citations please refer to: http://libint.valeyev.net

 Your ORCA version has been built with support for libXC version: 4.2.3
 For citations please refer to: https://tddft.org/programs/libxc/

 This ORCA versions uses:
   CBLAS   interface :  Fast vector & matrix operations
   LAPACKE interface :  Fast linear algebra routines
   SCALAPACK package :  Parallel linear algebra routines


Your calculation utilizes the DFT-NL dispersion correction.
Cite in your paper:
Vydrov, O. A.; Van Voorhis, T. J. Chem. Phys. 2010, 133, 244103
Hujo, W.; Grimme, S. J. Chem. Theory Comput. 2011, 7, 3866 
   

----- Orbital basis set information -----
Your calculation utilizes the basis: def2-TZVPPD
   F. Weigend and R. Ahlrichs, Phys. Chem. Chem. Phys. 7, 3297 (2005).
   D. Rappoport and F. Furche, J. Chem. Phys. 133 134105 (2010).

----- AuxJK basis set information -----
Your calculation utilizes the auxiliary basis: def2/JK
   H-Ba, Hf-Rn: F. Weigend, J. Comput. Chem. 29, 167 (2008).

cite the ECPs for Au [Def2-ECP] as follows:
Ce-Yb(ecp-28): M. Dolg, H. Stoll, H.Preuss, J. Chem. Phys., 1989, 90, 1730-1734.
Y-Cd(ecp-28), Hf-Hg(ecp-46): D. Andrae,U. Haeussermann, M. Dolg, H. Stoll, H. Preuss, Theor. Chim. Acta, 1990, 77, 123-141.
In-Sb(ecp-28), Tl-Bi(ecp-46): B. Metz, H. Stoll, M. Dolg, J. Chem. Phys., 2000, 113, 2563-2569.
Te-Xe(ecp-28), Po-Rn(ecp-46): K. A. Peterson, D. Figgen, E. Goll, H. Stoll, M. Dolg, J. Chem. Phys., 2003, 119, 11113-11123.
Rb(ecp-28), Cs(ecp-46): T. Leininger, A. Nicklass, W. Kuechle, H. Stoll, M. Dolg, A. Bergner, Chem. Phys. Lett., 1996, 255, 274-280.
Sr(ecp-28), Ba(ecp-46): M. Kaupp, P. V. Schleyer, H. Stoll and H. Preuss, J. Chem. Phys., 1991, 94, 1360-1366.
La(ecp-46): M. Dolg, H. Stoll, A. Savin, H. Preuss, Theor. Chim. Acta, 1989, 75, 173-194.
Lu(ecp-28): X. Cao, M. Dolg, J. Chem. Phys., 2001, 115, 7348-7355.

ECP parameters for Au [Def2-ECP] have been obtained from:
TURBOMOLE (7.0.2)

================================================================================
                                        WARNINGS
                       Please study these warnings very carefully!
================================================================================


INFO   : the flag for use of LIBINT has been found!

================================================================================
                                       INPUT FILE
================================================================================
NAME = Au04C2.in
|  1> #
|  2> # Au04C2 wB97X-V/Def2-TZVPPD
|  3> #
|  4> ! wb97x-v def2-tzvppd def2/jk grid4 nofinalgrid
|  5> 
|  6> *xyz 2 1
|  7> Au      -0.000000   -0.000044    1.659420 
|  8> Au      -1.354966    0.782292   -0.553161 
|  9> Au       1.354966    0.782292   -0.553161 
| 10> Au       0.000000   -1.564540   -0.553099 
| 11> *
| 12> 
| 13> %maxcore 5000
| 14> 
| 15> %pal
| 16> nprocs = 24
| 17> end
| 18> 
| 19> 
| 20>                          ****END OF INPUT****
================================================================================

                       ****************************
                       * Single Point Calculation *
                       ****************************

---------------------------------
CARTESIAN COORDINATES (ANGSTROEM)
---------------------------------
  Au    -0.000000   -0.000044    1.659420
  Au    -1.354966    0.782292   -0.553161
  Au     1.354966    0.782292   -0.553161
  Au     0.000000   -1.564540   -0.553099

----------------------------
CARTESIAN COORDINATES (A.U.)
----------------------------
  NO LB      ZA    FRAG     MASS         X           Y           Z
   0 Au   19.0000*   0   196.966   -0.000000   -0.000083    3.135849
   1 Au   19.0000*   0   196.966   -2.560515    1.478318   -1.045323
   2 Au   19.0000*   0   196.966    2.560515    1.478318   -1.045323
   3 Au   19.0000*   0   196.966    0.000000   -2.956552   -1.045206
* core charge reduced due to ECP

--------------------------------
INTERNAL COORDINATES (ANGSTROEM)
--------------------------------
 Au     0   0   0     0.000000000000     0.00000000     0.00000000
 Au     1   0   0     2.709888772554     0.00000000     0.00000000
 Au     1   2   0     2.709888772554    60.00105536     0.00000000
 Au     1   2   3     2.709776385493    60.00162481   289.47032483

---------------------------
INTERNAL COORDINATES (A.U.)
---------------------------
 Au     0   0   0     0.000000000000     0.00000000     0.00000000
 Au     1   0   0     5.120947633515     0.00000000     0.00000000
 Au     1   2   0     5.120947633515    60.00105536     0.00000000
 Au     1   2   3     5.120735252749    60.00162481   289.47032483

---------------------
BASIS SET INFORMATION
---------------------
There are 1 groups of distinct atoms

 Group   1 Type Au  : 8s8p6d2f1g contracted to 6s5p3d2f1g pattern {311111/41111/411/11/1}

Atom   0Au   basis set group =>   1
Atom   1Au   basis set group =>   1
Atom   2Au   basis set group =>   1
Atom   3Au   basis set group =>   1
----------------------------------
AUXILIARY/JK BASIS SET INFORMATION
----------------------------------
There are 1 groups of distinct atoms

 Group   1 Type Au  : 13s12p11d9f5g3h2i contracted to 13s11p10d8f4g3h2i pattern {1111111111111/21111111111/2111111111/21111111/2111/111/11}

Atom   0Au   basis set group =>   1
Atom   1Au   basis set group =>   1
Atom   2Au   basis set group =>   1
Atom   3Au   basis set group =>   1
-------------------------
ECP PARAMETER INFORMATION
-------------------------

 Group 1, Type Au ECP Def2-ECP (replacing 60 core electrons, lmax=3)

Atom   0Au   ECP group =>   1
Atom   1Au   ECP group =>   1
Atom   2Au   ECP group =>   1
Atom   3Au   ECP group =>   1



           ************************************************************
           *        Program running with 24 parallel MPI-processes    *
           *              working on a common directory               *
           ************************************************************
------------------------------------------------------------------------------
                           ORCA GTO INTEGRAL CALCULATION
------------------------------------------------------------------------------

                         BASIS SET STATISTICS AND STARTUP INFO

 # of primitive gaussian shells          ...  100
 # of primitive gaussian functions       ...  340
 # of contracted shells                  ...   68
 # of contracted basis functions         ...  236
 Highest angular momentum                ...    4
 Maximum contraction depth               ...    4
 Integral package used                   ... LIBINT
 Integral threshhold            Thresh   ...  1.000e-10
 Primitive cut-off              TCut     ...  1.000e-11


------------------------------ INTEGRAL EVALUATION ----------------------------


 * One electron integrals 

   ECP integrals                         ... done
 Pre-screening matrix                    ... done
 Shell pair data                         ... done (   0.001 sec)



           ************************************************************
           *        Program running with 24 parallel MPI-processes    *
           *              working on a common directory               *
           ************************************************************
-------------------------------------------------------------------------------
                                 ORCA SCF
-------------------------------------------------------------------------------

------------
SCF SETTINGS
------------
Hamiltonian:
 Density Functional     Method          .... DFT(GTOs)
 Exchange Functional    Exchange        .... WB97X-V
 Correlation Functional Correlation     .... WB97X-V
 Gradients option       PostSCFGGA      .... off
 Hybrid DFT is turned on
   Fraction HF Exchange ScalHFX         ....  0.167000
   Scaling of DF-GGA-X  ScalDFX         ....  0.000000
   Scaling of DF-GGA-C  ScalDFC         ....  1.000000
   Scaling of DF-LDA-C  ScalLDAC        ....  1.000000
   Perturbative correction              ....  0.000000
   Density functional embedding theory  .... OFF
 Long-range corrected/Screened/Range-Separated Hybrid DFT is turned on
   Amount of maximum screened exact exchange              ....  0.833000
   Range separation parameter mu (erf(mu*r12)/r12)        ....  0.300000
   NL short-range parameter             ....  6.000000
   NL long-range parameter              ....  0.010000


General Settings:
 Integral files         IntName         .... Au04C2
 Hartree-Fock type      HFTyp           .... RHF
 Total Charge           Charge          ....    2
 Multiplicity           Mult            ....    1
 Number of Electrons    NEL             ....   74
 Basis Dimension        Dim             ....  236
 Nuclear Repulsion      ENuc            ....    422.9698503131 Eh

Convergence Acceleration:
 DIIS                   CNVDIIS         .... on
   Start iteration      DIISMaxIt       ....    12
   Startup error        DIISStart       ....  0.200000
   # of expansion vecs  DIISMaxEq       ....     5
   Bias factor          DIISBfac        ....   1.050
   Max. coefficient     DIISMaxC        ....  10.000
 Newton-Raphson         CNVNR           .... off
 SOSCF                  CNVSOSCF        .... off
 Level Shifting         CNVShift        .... on
   Level shift para.    LevelShift      ....    0.2500
   Turn off err/grad.   ShiftErr        ....    0.0010
 Zerner damping         CNVZerner       .... off
 Static damping         CNVDamp         .... on
   Fraction old density DampFac         ....    0.7000
   Max. Damping (<1)    DampMax         ....    0.9800
   Min. Damping (>=0)   DampMin         ....    0.0000
   Turn off err/grad.   DampErr         ....    0.1000
 Fernandez-Rico         CNVRico         .... off

SCF Procedure:
 Maximum # iterations   MaxIter         ....   125
 SCF integral mode      SCFMode         .... Direct
   Integral package                     .... LIBINT
 Reset frequency        DirectResetFreq ....    20
 Integral Threshold     Thresh          ....  1.000e-10 Eh
 Primitive CutOff       TCut            ....  1.000e-11 Eh

Convergence Tolerance:
 Convergence Check Mode ConvCheckMode   .... Total+1el-Energy
 Convergence forced     ConvForced      .... 0
 Energy Change          TolE            ....  1.000e-06 Eh
 1-El. energy change                    ....  1.000e-03 Eh
 DIIS Error             TolErr          ....  1.000e-06


Diagonalization of the overlap matrix:
Smallest eigenvalue                        ... 1.132e-03
Time for diagonalization                   ...    0.009 sec
Threshold for overlap eigenvalues          ... 1.000e-08
Number of eigenvalues below threshold      ... 0
Time for construction of square roots      ...    0.007 sec
Total time needed                          ...    0.016 sec

-------------------
DFT GRID GENERATION
-------------------

General Integration Accuracy     IntAcc      ...  4.670
Radial Grid Type                 RadialGrid  ... Gauss-Chebyshev
Angular Grid (max. acc.)         AngularGrid ... Lebedev-302
Angular grid pruning method      GridPruning ... 3 (G Style)
Weight generation scheme         WeightScheme... Becke
Basis function cutoff            BFCut       ...    1.0000e-10
Integration weight cutoff        WCut        ...    1.0000e-14
Grids for H and He will be reduced by one unit

# of grid points (after initial pruning)     ...  46608 (   0.0 sec)
# of grid points (after weights+screening)   ...  46157 (   0.0 sec)
nearest neighbour list constructed           ...    0.0 sec
Grid point re-assignment to atoms done       ...    0.0 sec
Grid point division into batches done        ...    0.6 sec
Reduced shell lists constructed in    0.6 sec

Total number of grid points                  ...    46157
Total number of batches                      ...      724
Average number of points per batch           ...       63
Average number of grid points per atom       ...    11539
Average number of shells per batch           ...     9.50 (13.97%)
Average number of basis functions per batch  ...    26.25 (11.12%)
Average number of large shells per batch     ...     5.94 (62.50%)
Average number of large basis fcns per batch ...    14.94 (56.90%)
Maximum spatial batch extension              ...  27.70, 27.52, 24.86 au
Average spatial batch extension              ...   0.57,  0.58,  0.53 au

Time for grid setup =    0.602 sec

------------------------------
INITIAL GUESS: MODEL POTENTIAL
------------------------------
Loading Hartree-Fock densities                     ... done
  calling /sw/apps/orca/orca_4_2_0_linux_x86-64_openmpi314/orca Au04C2_atom79.inp > Au04C2_atom79.out in order to generate an atomic fitting density for atom 0 (Au with ECP) on-the-fly... 
    atom 0 (Au), assumed electronic state with S=2: 1s2 2s2 2p6 3s2 3p6 4s2 3d10 4p6 5s2 4d10 5p6 6s1 4f14 5d10           ... done
Calculating cut-offs                               ... done
Setting up the integral package                    ... done
Initializing the effective Hamiltonian             ... done
Starting the Coulomb interaction                   ... done (   0.0 sec)
Reading the grid                                   ... done
Mapping shells                                     ... done
Starting the XC term evaluation                    ... done (   0.0 sec)
  promolecular density results
     # of electrons  =    316.009275119
     EX              =  -1171.362324887
     EC              =    -25.039163248
     EX+EC           =  -1196.401488134
Transforming the Hamiltonian                       ... done (   0.0 sec)
Diagonalizing the Hamiltonian                      ... done (   0.0 sec)
Back transforming the eigenvectors                 ... done (   0.0 sec)
Now organizing SCF variables                       ... done
                      ------------------
                      INITIAL GUESS DONE (   1.9 sec)
                      ------------------
--------------
SCF ITERATIONS
--------------
ITER       Energy         Delta-E        Max-DP      RMS-DP      [F,P]     Damp
               ***  Starting incremental Fock matrix formation  ***
  0   -541.4339984354   0.000000000000 0.08589064  0.00227504  0.4609587 0.7000
  1   -541.7905050128  -0.356506577362 0.09284816  0.00190276  0.3394020 0.7000
  2   -541.9923261010  -0.201821088266 0.08879569  0.00144372  0.2480013 0.7000
                               ***Turning on DIIS***
  3   -542.1205349714  -0.128208870421 0.07487221  0.00110617  0.1789929 0.7000
  4   -542.2101646466  -0.089629675196 0.06618628  0.00094769  0.1277716 0.7000
  5   -542.2747621588  -0.064597512162 0.16032634  0.00245738  0.0888300 0.0000
  6   -542.4386699270  -0.163907768220 0.01620530  0.00032675  0.0078512 0.0000
  7   -542.4407996031  -0.002129676074 0.01204618  0.00025593  0.0047938 0.0000
  8   -542.4417131781  -0.000913574959 0.00768457  0.00016113  0.0034720 0.0000
  9   -542.4420988758  -0.000385697719 0.00461361  0.00008016  0.0017556 0.0000
 10   -542.4421916367  -0.000092760961 0.00406796  0.00006715  0.0009642 0.0000
 11   -542.4422245751  -0.000032938322 0.00069526  0.00001097  0.0002883 0.0000
 12   -542.4422265959  -0.000002020848 0.00048659  0.00000788  0.0001349 0.0000
 13   -542.4422272455  -0.000000649580 0.00020711  0.00000307  0.0000437 0.0000
                 **** Energy Check signals convergence ****

               *****************************************************
               *                     SUCCESS                       *
               *           SCF CONVERGED AFTER  14 CYCLES          *
               *****************************************************


Setting up the DFT-NL grid :

General Integration Accuracy     IntAcc      ...  4.340
Radial Grid Type                 RadialGrid  ... Gauss-Chebyshev
Angular Grid (max. acc.)         AngularGrid ... Lebedev-110
Angular grid pruning method      GridPruning ... 3 (G Style)
Weight generation scheme         WeightScheme... Becke
Basis function cutoff            BFCut       ...    1.0000e-10
Integration weight cutoff        WCut        ...    1.0000e-14
Grids for H and He will be reduced by one unit

# of grid points (after initial pruning)     ...  14120 (   0.0 sec)
# of grid points (after weights+screening)   ...  14018 (   0.0 sec)
nearest neighbour list constructed           ...    0.0 sec
Grid point re-assignment to atoms done       ...    0.0 sec
Grid point division into batches done        ...    0.0 sec
Reduced shell lists constructed in    0.0 sec

Total number of grid points                  ...    14018
Total number of batches                      ...      222
Average number of points per batch           ...       63
Average number of grid points per atom       ...     3504
Average number of shells per batch           ...    15.73 (23.13%)
Average number of basis functions per batch  ...    46.27 (19.61%)
Average number of large shells per batch     ...    10.91 (69.36%)
Average number of large basis fcns per batch ...    31.82 (68.76%)
Maximum spatial batch extension              ...  40.43, 29.14, 20.92 au
Average spatial batch extension              ...   0.93,  0.79,  0.61 au

Final grid set up in    0.1 sec

-------------------------------------------------------------------------------
                         DFT-NL dispersion correction                          
-------------------------------------------------------------------------------

SC Energy -542.442227314 
NL    Energy 0.271259615 
SC+NL Energy -542.170967699 
NL done in    0.0 sec
-------------------------------------------------------------------------------

----------------
TOTAL SCF ENERGY
----------------

Total Energy       :         -542.17096770 Eh          -14753.22207 eV

Components:
Nuclear Repulsion  :          422.96985031 Eh           11509.59476 eV
Electronic Energy  :         -965.14081801 Eh          -26262.81683 eV
One Electron Energy:        -1771.29531727 Eh          -48199.39599 eV
Two Electron Energy:          806.15449926 Eh           21936.57916 eV

Virial components:
Potential Energy   :         -726.14048960 Eh          -19759.28726 eV
Kinetic Energy     :          183.96952190 Eh            5006.06519 eV
Virial Ratio       :            3.94706950


DFT components:
N(Alpha)           :       37.000013641237 electrons
N(Beta)            :       37.000013641237 electrons
N(Total)           :       74.000027282474 electrons
E(X)               :      -30.239162716964 Eh       
E(C)               :       -3.432111734206 Eh       
NL Energy, E(C,NL) :        0.271259614774 Eh       
E(XC)              :      -33.400014836396 Eh       
DFET-embed. en.    :        0.000000000000 Eh       

---------------
SCF CONVERGENCE
---------------

  Last Energy change         ...   -6.8471e-08  Tolerance :   1.0000e-06
  Last MAX-Density change    ...    3.5732e-05  Tolerance :   1.0000e-05
  Last RMS-Density change    ...    5.3520e-07  Tolerance :   1.0000e-06
  Last DIIS Error            ...    7.3005e-06  Tolerance :   1.0000e-06

             **** THE GBW FILE WAS UPDATED (Au04C2.gbw) ****
             **** DENSITY FILE WAS UPDATED (Au04C2.scfp) ****
             **** ENERGY FILE WAS UPDATED (Au04C2.en.tmp) ****
             **** THE GBW FILE WAS UPDATED (Au04C2.gbw) ****
             **** DENSITY FILE WAS UPDATED (Au04C2.scfp) ****
----------------
ORBITAL ENERGIES
----------------

  NO   OCC          E(Eh)            E(eV) 
   0   2.0000      -4.642249      -126.3220 
   1   2.0000      -4.641908      -126.3127 
   2   2.0000      -4.641906      -126.3127 
   3   2.0000      -4.641903      -126.3126 
   4   2.0000      -2.833371       -77.1000 
   5   2.0000      -2.827455       -76.9390 
   6   2.0000      -2.827454       -76.9389 
   7   2.0000      -2.827452       -76.9389 
   8   2.0000      -2.823157       -76.8220 
   9   2.0000      -2.823153       -76.8219 
  10   2.0000      -2.821280       -76.7709 
  11   2.0000      -2.821274       -76.7708 
  12   2.0000      -2.821272       -76.7707 
  13   2.0000      -2.820302       -76.7443 
  14   2.0000      -2.820301       -76.7443 
  15   2.0000      -2.820296       -76.7442 
  16   2.0000      -0.905850       -24.6494 
  17   2.0000      -0.857328       -23.3291 
  18   2.0000      -0.857322       -23.3289 
  19   2.0000      -0.857321       -23.3289 
  20   2.0000      -0.839526       -22.8447 
  21   2.0000      -0.839524       -22.8446 
  22   2.0000      -0.815582       -22.1931 
  23   2.0000      -0.815577       -22.1930 
  24   2.0000      -0.815574       -22.1929 
  25   2.0000      -0.777143       -21.1471 
  26   2.0000      -0.777141       -21.1471 
  27   2.0000      -0.777141       -21.1471 
  28   2.0000      -0.777081       -21.1454 
  29   2.0000      -0.777076       -21.1453 
  30   2.0000      -0.777076       -21.1453 
  31   2.0000      -0.774446       -21.0737 
  32   2.0000      -0.774439       -21.0736 
  33   2.0000      -0.768628       -20.9154 
  34   2.0000      -0.740774       -20.1575 
  35   2.0000      -0.740771       -20.1574 
  36   2.0000      -0.740766       -20.1573 
  37   0.0000      -0.402197       -10.9443 
  38   0.0000      -0.402194       -10.9443 
  39   0.0000      -0.402190       -10.9441 
  40   0.0000      -0.264179        -7.1887 
  41   0.0000      -0.253633        -6.9017 
  42   0.0000      -0.253629        -6.9016 
  43   0.0000      -0.253629        -6.9016 
  44   0.0000      -0.235459        -6.4072 
  45   0.0000      -0.235456        -6.4071 
  46   0.0000      -0.139982        -3.8091 
  47   0.0000      -0.139981        -3.8091 
  48   0.0000      -0.139978        -3.8090 
  49   0.0000      -0.120576        -3.2810 
  50   0.0000      -0.120575        -3.2810 
  51   0.0000      -0.120572        -3.2809 
  52   0.0000      -0.068151        -1.8545 
  53   0.0000      -0.044666        -1.2154 
  54   0.0000      -0.044664        -1.2154 
  55   0.0000      -0.044663        -1.2153 
  56   0.0000      -0.037501        -1.0205 
  57   0.0000      -0.037200        -1.0123 
  58   0.0000      -0.037199        -1.0122 
  59   0.0000       0.023065         0.6276 
  60   0.0000       0.023066         0.6276 
  61   0.0000       0.023069         0.6277 
  62   0.0000       0.054146         1.4734 
  63   0.0000       0.054147         1.4734 
  64   0.0000       0.054150         1.4735 
  65   0.0000       0.061081         1.6621 
  66   0.0000       0.061082         1.6621 
  67   0.0000       0.061087         1.6622 
  68   0.0000       0.104730         2.8498 
  69   0.0000       0.104731         2.8499 
  70   0.0000       0.104738         2.8501 
  71   0.0000       0.150721         4.1013 
  72   0.0000       0.150722         4.1014 
  73   0.0000       0.163223         4.4415 
  74   0.0000       0.163226         4.4416 
  75   0.0000       0.163228         4.4417 
  76   0.0000       0.245650         6.6845 
  77   0.0000       0.245650         6.6845 
  78   0.0000       0.245652         6.6845 
  79   0.0000       0.253927         6.9097 
  80   0.0000       0.254139         6.9155 
  81   0.0000       0.254139         6.9155 
  82   0.0000       0.304339         8.2815 
  83   0.0000       0.304341         8.2815 
  84   0.0000       0.304352         8.2818 
  85   0.0000       0.317711         8.6454 
  86   0.0000       0.317714         8.6454 
  87   0.0000       0.317718         8.6456 
  88   0.0000       0.571013        15.5380 
  89   0.0000       0.648705        17.6522 
  90   0.0000       0.648707        17.6522 
  91   0.0000       0.650092        17.6899 
  92   0.0000       0.650110        17.6904 
  93   0.0000       0.650124        17.6908 
  94   0.0000       0.738929        20.1073 
  95   0.0000       0.738933        20.1074 
  96   0.0000       0.738953        20.1079 
  97   0.0000       0.741014        20.1640 
  98   0.0000       0.803482        21.8639 
  99   0.0000       0.803490        21.8641 
 100   0.0000       0.803494        21.8642 
 101   0.0000       0.852029        23.1849 
 102   0.0000       0.852034        23.1850 
 103   0.0000       0.852037        23.1851 
 104   0.0000       0.907121        24.6840 
 105   0.0000       0.907130        24.6843 
 106   0.0000       0.924966        25.1696 
 107   0.0000       0.924973        25.1698 
 108   0.0000       0.924978        25.1699 
 109   0.0000       0.929103        25.2822 
 110   0.0000       0.929105        25.2822 
 111   0.0000       0.929117        25.2826 
 112   0.0000       0.939190        25.5567 
 113   0.0000       1.035927        28.1890 
 114   0.0000       1.035938        28.1893 
 115   0.0000       1.035938        28.1893 
 116   0.0000       1.055162        28.7124 
 117   0.0000       1.055170        28.7126 
 118   0.0000       1.055177        28.7128 
 119   0.0000       1.098422        29.8896 
 120   0.0000       1.114228        30.3197 
 121   0.0000       1.114233        30.3198 
 122   0.0000       1.130869        30.7725 
 123   0.0000       1.130881        30.7728 
 124   0.0000       1.130902        30.7734 
 125   0.0000       1.187795        32.3215 
 126   0.0000       1.187797        32.3216 
 127   0.0000       1.187801        32.3217 
 128   0.0000       1.225529        33.3484 
 129   0.0000       1.225530        33.3484 
 130   0.0000       1.225548        33.3489 
 131   0.0000       1.241702        33.7884 
 132   0.0000       1.241704        33.7885 
 133   0.0000       1.290408        35.1138 
 134   0.0000       1.290412        35.1139 
 135   0.0000       1.290420        35.1141 
 136   0.0000       1.306883        35.5621 
 137   0.0000       1.306885        35.5621 
 138   0.0000       1.306892        35.5623 
 139   0.0000       1.359070        36.9822 
 140   0.0000       1.361581        37.0505 
 141   0.0000       1.361585        37.0506 
 142   0.0000       1.505906        40.9778 
 143   0.0000       1.505918        40.9781 
 144   0.0000       1.505946        40.9789 
 145   0.0000       1.714267        46.6476 
 146   0.0000       1.714280        46.6479 
 147   0.0000       1.714350        46.6498 
 148   0.0000       1.926664        52.4272 
 149   0.0000       2.504066        68.1391 
 150   0.0000       2.504090        68.1398 
 151   0.0000       2.504124        68.1407 
 152   0.0000       3.162844        86.0653 
 153   0.0000       3.183454        86.6262 
 154   0.0000       3.183546        86.6287 
 155   0.0000       3.183576        86.6295 
 156   0.0000       3.286380        89.4269 
 157   0.0000       3.286499        89.4302 
 158   0.0000       3.286604        89.4331 
 159   0.0000       3.320260        90.3489 
 160   0.0000       3.339544        90.8736 
 161   0.0000       3.339548        90.8737 
 162   0.0000       3.348078        91.1058 
 163   0.0000       3.348155        91.1079 
 164   0.0000       3.348254        91.1106 
 165   0.0000       3.393562        92.3435 
 166   0.0000       3.504126        95.3521 
 167   0.0000       3.504163        95.3531 
 168   0.0000       3.504240        95.3552 
 169   0.0000       3.511822        95.5615 
 170   0.0000       3.511843        95.5621 
 171   0.0000       3.511979        95.5658 
 172   0.0000       3.518128        95.7331 
 173   0.0000       3.518219        95.7356 
 174   0.0000       3.586612        97.5967 
 175   0.0000       3.586702        97.5991 
 176   0.0000       3.586731        97.5999 
 177   0.0000       3.693986       100.5185 
 178   0.0000       3.694152       100.5230 
 179   0.0000       3.694288       100.5267 
 180   0.0000       3.835384       104.3661 
 181   0.0000       3.835507       104.3695 
 182   0.0000       3.842235       104.5525 
 183   0.0000       3.842237       104.5526 
 184   0.0000       3.842508       104.5600 
 185   0.0000       3.843334       104.5824 
 186   0.0000       3.844747       104.6209 
 187   0.0000       3.844780       104.6218 
 188   0.0000       3.844800       104.6223 
 189   0.0000       3.845249       104.6345 
 190   0.0000       3.845443       104.6398 
 191   0.0000       3.845569       104.6433 
 192   0.0000       3.851647       104.8087 
 193   0.0000       3.851798       104.8128 
 194   0.0000       3.852066       104.8201 
 195   0.0000       3.852224       104.8243 
 196   0.0000       3.852310       104.8267 
 197   0.0000       3.854026       104.8734 
 198   0.0000       3.854160       104.8770 
 199   0.0000       3.854166       104.8772 
 200   0.0000       3.857429       104.9660 
 201   0.0000       3.857574       104.9699 
 202   0.0000       3.877782       105.5198 
 203   0.0000       3.877813       105.5207 
 204   0.0000       3.877933       105.5239 
 205   0.0000       3.878598       105.5420 
 206   0.0000       3.878611       105.5424 
 207   0.0000       3.883136       105.6655 
 208   0.0000       3.883206       105.6674 
 209   0.0000       3.883294       105.6698 
 210   0.0000       3.953371       107.5767 
 211   0.0000       3.953421       107.5781 
 212   0.0000       3.953454       107.5789 
 213   0.0000       4.051842       110.2562 
 214   0.0000       4.051857       110.2566 
 215   0.0000       4.051946       110.2591 
 216   0.0000      27.229228       740.9450 
 217   0.0000      27.229302       740.9470 
 218   0.0000      27.323897       743.5210 
 219   0.0000      27.323929       743.5219 
 220   0.0000      27.323954       743.5226 
 221   0.0000      28.475840       774.8670 
 222   0.0000      28.475924       774.8693 
 223   0.0000      28.476149       774.8754 
 224   0.0000      28.579075       777.6762 
 225   0.0000      29.382073       799.5268 
 226   0.0000      29.382154       799.5291 
 227   0.0000      29.382501       799.5385 
 228   0.0000      43.750342      1190.5073 
 229   0.0000      44.350127      1206.8283 
 230   0.0000      44.350151      1206.8290 
 231   0.0000      44.350189      1206.8300 
 232   0.0000     204.849368      5574.2347 
 233   0.0000     205.113408      5581.4196 
 234   0.0000     205.113418      5581.4199 
 235   0.0000     205.113433      5581.4203 

                    ********************************
                    * MULLIKEN POPULATION ANALYSIS *
                    ********************************

-----------------------
MULLIKEN ATOMIC CHARGES
-----------------------
   0 Au:    0.499875
   1 Au:    0.500008
   2 Au:    0.500010
   3 Au:    0.500107
Sum of atomic charges:    2.0000000

--------------------------------
MULLIKEN REDUCED ORBITAL CHARGES
--------------------------------
  0 Aus       :     2.543343  s :     2.543343
      pz      :     2.094718  p :     6.137227
      px      :     2.021257
      py      :     2.021252
      dz2     :     1.966851  d :     9.808496
      dxz     :     1.934221
      dyz     :     1.934211
      dx2y2   :     1.986606
      dxy     :     1.986606
      f0      :     0.002010  f :     0.010901
      f+1     :     0.002270
      f-1     :     0.002270
      f+2     :     0.001787
      f-2     :     0.001787
      f+3     :     0.000385
      f-3     :     0.000391
      g0      :     0.000021  g :     0.000158
      g+1     :     0.000028
      g-1     :     0.000028
      g+2     :     0.000027
      g-2     :     0.000027
      g+3     :     0.000012
      g-3     :     0.000012
      g+4     :     0.000002
      g-4     :     0.000002
  1 Aus       :     2.543244  s :     2.543244
      pz      :     2.029405  p :     6.137186
      px      :     2.070212
      py      :     2.037569
      dz2     :     1.953746  d :     9.808505
      dxz     :     1.966457
      dyz     :     1.983583
      dx2y2   :     1.940522
      dxy     :     1.964197
      f0      :     0.001375  f :     0.010898
      f+1     :     0.001803
      f-1     :     0.001125
      f+2     :     0.001377
      f-2     :     0.001177
      f+3     :     0.002179
      f-3     :     0.001863
      g0      :     0.000014  g :     0.000158
      g+1     :     0.000020
      g-1     :     0.000011
      g+2     :     0.000019
      g-2     :     0.000019
      g+3     :     0.000017
      g-3     :     0.000008
      g+4     :     0.000026
      g-4     :     0.000025
  2 Aus       :     2.543243  s :     2.543243
      pz      :     2.029406  p :     6.137186
      px      :     2.070211
      py      :     2.037569
      dz2     :     1.953746  d :     9.808505
      dxz     :     1.966457
      dyz     :     1.983583
      dx2y2   :     1.940522
      dxy     :     1.964196
      f0      :     0.001375  f :     0.010898
      f+1     :     0.001803
      f-1     :     0.001125
      f+2     :     0.001377
      f-2     :     0.001177
      f+3     :     0.002179
      f-3     :     0.001863
      g0      :     0.000014  g :     0.000158
      g+1     :     0.000020
      g-1     :     0.000011
      g+2     :     0.000019
      g-2     :     0.000019
      g+3     :     0.000017
      g-3     :     0.000008
      g+4     :     0.000026
      g-4     :     0.000025
  3 Aus       :     2.543213  s :     2.543213
      pz      :     2.029405  p :     6.137160
      px      :     2.021254
      py      :     2.086501
      dz2     :     1.953732  d :     9.808463
      dxz     :     1.992148
      dyz     :     1.957882
      dx2y2   :     1.976021
      dxy     :     1.928680
      f0      :     0.001375  f :     0.010899
      f+1     :     0.000787
      f-1     :     0.002142
      f+2     :     0.001077
      f-2     :     0.001477
      f+3     :     0.002179
      f-3     :     0.001862
      g0      :     0.000014  g :     0.000158
      g+1     :     0.000006
      g-1     :     0.000025
      g+2     :     0.000019
      g-2     :     0.000019
      g+3     :     0.000017
      g-3     :     0.000008
      g+4     :     0.000024
      g-4     :     0.000027


                     *******************************
                     * LOEWDIN POPULATION ANALYSIS *
                     *******************************

----------------------
LOEWDIN ATOMIC CHARGES
----------------------
   0 Au:    0.499980
   1 Au:    0.500002
   2 Au:    0.500002
   3 Au:    0.500016

-------------------------------
LOEWDIN REDUCED ORBITAL CHARGES
-------------------------------
  0 Aus       :     2.368242  s :     2.368242
      pz      :     2.166910  p :     6.242996
      px      :     2.038042
      py      :     2.038043
      dz2     :     1.981758  d :     9.869735
      dxz     :     1.955218
      dyz     :     1.955215
      dx2y2   :     1.988773
      dxy     :     1.988772
      f0      :     0.002689  f :     0.018815
      f+1     :     0.004557
      f-1     :     0.004558
      f+2     :     0.002921
      f-2     :     0.002921
      f+3     :     0.000605
      f-3     :     0.000563
      g0      :     0.000024  g :     0.000231
      g+1     :     0.000043
      g-1     :     0.000043
      g+2     :     0.000041
      g-2     :     0.000041
      g+3     :     0.000018
      g-3     :     0.000017
      g+4     :     0.000002
      g-4     :     0.000002
  1 Aus       :     2.368215  s :     2.368215
      pz      :     2.052359  p :     6.242986
      px      :     2.123951
      py      :     2.066677
      dz2     :     1.970686  d :     9.869754
      dxz     :     1.975667
      dyz     :     1.985602
      dx2y2   :     1.961163
      dxy     :     1.976636
      f0      :     0.001896  f :     0.018811
      f+1     :     0.003749
      f-1     :     0.002155
      f+2     :     0.001980
      f-2     :     0.001824
      f+3     :     0.004667
      f-3     :     0.002541
      g0      :     0.000021  g :     0.000231
      g+1     :     0.000028
      g-1     :     0.000015
      g+2     :     0.000029
      g-2     :     0.000030
      g+3     :     0.000022
      g-3     :     0.000010
      g+4     :     0.000041
      g-4     :     0.000035
  2 Aus       :     2.368215  s :     2.368215
      pz      :     2.052359  p :     6.242986
      px      :     2.123951
      py      :     2.066677
      dz2     :     1.970686  d :     9.869754
      dxz     :     1.975667
      dyz     :     1.985602
      dx2y2   :     1.961163
      dxy     :     1.976636
      f0      :     0.001896  f :     0.018811
      f+1     :     0.003749
      f-1     :     0.002155
      f+2     :     0.001980
      f-2     :     0.001824
      f+3     :     0.004667
      f-3     :     0.002541
      g0      :     0.000021  g :     0.000231
      g+1     :     0.000028
      g-1     :     0.000015
      g+2     :     0.000029
      g-2     :     0.000030
      g+3     :     0.000022
      g-3     :     0.000010
      g+4     :     0.000041
      g-4     :     0.000035
  3 Aus       :     2.368208  s :     2.368208
      pz      :     2.052363  p :     6.242993
      px      :     2.038042
      py      :     2.152588
      dz2     :     1.970678  d :     9.869737
      dxz     :     1.990571
      dyz     :     1.970693
      dx2y2   :     1.984373
      dxy     :     1.953421
      f0      :     0.001896  f :     0.018815
      f+1     :     0.001358
      f-1     :     0.004547
      f+2     :     0.001747
      f-2     :     0.002058
      f+3     :     0.004668
      f-3     :     0.002541
      g0      :     0.000021  g :     0.000231
      g+1     :     0.000009
      g-1     :     0.000034
      g+2     :     0.000031
      g-2     :     0.000029
      g+3     :     0.000022
      g-3     :     0.000010
      g+4     :     0.000031
      g-4     :     0.000045


                      *****************************
                      * MAYER POPULATION ANALYSIS *
                      *****************************

  NA   - Mulliken gross atomic population
  ZA   - Total nuclear charge
  QA   - Mulliken gross atomic charge
  VA   - Mayer's total valence
  BVA  - Mayer's bonded valence
  FA   - Mayer's free valence

  ATOM       NA         ZA         QA         VA         BVA        FA
  0 Au    18.5001    19.0000     0.4999     1.2726     1.2726    -0.0000
  1 Au    18.5000    19.0000     0.5000     1.2725     1.2725    -0.0000
  2 Au    18.5000    19.0000     0.5000     1.2725     1.2725    -0.0000
  3 Au    18.4999    19.0000     0.5001     1.2724     1.2724    -0.0000

  Mayer bond orders larger than 0.100000
B(  0-Au,  1-Au) :   0.4242 B(  0-Au,  2-Au) :   0.4242 B(  0-Au,  3-Au) :   0.4242 
B(  1-Au,  2-Au) :   0.4241 B(  1-Au,  3-Au) :   0.4241 B(  2-Au,  3-Au) :   0.4241 


-------
TIMINGS
-------

Total SCF time: 0 days 0 hours 0 min 24 sec 

Total time                  ....      24.588 sec
Sum of individual times     ....      24.294 sec  ( 98.8%)

Fock matrix formation       ....      22.146 sec  ( 90.1%)
  XC integration            ....       0.637 sec  (  2.9% of F)
    Basis function eval.    ....       0.111 sec  ( 17.4% of XC)
    Density eval.           ....       0.096 sec  ( 15.1% of XC)
    XC-Functional eval.     ....       0.044 sec  (  6.9% of XC)
    XC-Potential eval.      ....       0.142 sec  ( 22.3% of XC)
Diagonalization             ....       0.117 sec  (  0.5%)
Density matrix formation    ....       0.017 sec  (  0.1%)
Population analysis         ....       0.008 sec  (  0.0%)
Initial guess               ....       1.273 sec  (  5.2%)
Orbital Transformation      ....       0.000 sec  (  0.0%)
Orbital Orthonormalization  ....       0.000 sec  (  0.0%)
DIIS solution               ....       0.062 sec  (  0.3%)
Grid generation             ....       0.671 sec  (  2.7%)

-------------------------   --------------------
FINAL SINGLE POINT ENERGY      -542.170967699179
-------------------------   --------------------


                            ***************************************
                            *     ORCA property calculations      *
                            ***************************************

                                    ---------------------
                                    Active property flags
                                    ---------------------
   (+) Dipole Moment


------------------------------------------------------------------------------
                       ORCA ELECTRIC PROPERTIES CALCULATION
------------------------------------------------------------------------------

Dipole Moment Calculation                       ... on
Quadrupole Moment Calculation                   ... off
Polarizability Calculation                      ... off
GBWName                                         ... Au04C2.gbw
Electron density file                           ... Au04C2.scfp
The origin for moment calculation is the CENTER OF MASS  = ( 0.000000,  0.000000 -0.000000)

-------------
DIPOLE MOMENT
-------------
                                X             Y             Z
Electronic contribution:      0.00000       0.00002      -0.00002
Nuclear contribution   :      0.00000       0.00000       0.00000
                        -----------------------------------------
Total Dipole Moment    :      0.00000       0.00002      -0.00002
                        -----------------------------------------
Magnitude (a.u.)       :      0.00003
Magnitude (Debye)      :      0.00007



--------------------
Rotational spectrum 
--------------------
 
Rotational constants in cm-1:     0.011655     0.011655     0.011654 
Rotational constants in MHz :   349.408482   349.408217   349.388110 

 Dipole components along the rotational axes: 
x,y,z [a.u.] :    -0.000025     0.000000    -0.000009 
x,y,z [Debye]:    -0.000064     0.000000    -0.000023 

 

Timings for individual modules:

Sum of individual times         ...       26.811 sec (=   0.447 min)
GTO integral calculation        ...        1.800 sec (=   0.030 min)   6.7 %
SCF iterations                  ...       25.011 sec (=   0.417 min)  93.3 %
                             ****ORCA TERMINATED NORMALLY****
TOTAL RUN TIME: 0 days 0 hours 0 minutes 27 seconds 389 msec
