
                                 *****************
                                 * O   R   C   A *
                                 *****************

           --- An Ab Initio, DFT and Semiempirical electronic structure package ---

                  #######################################################
                  #                        -***-                        #
                  #          Department of theory and spectroscopy      #
                  #               Directorship: Frank Neese             #
                  #        Max Planck Institute fuer Kohlenforschung    #
                  #                Kaiser Wilhelm Platz 1               #
                  #                 D-45470 Muelheim/Ruhr               #
                  #                      Germany                        #
                  #                                                     #
                  #                  All rights reserved                #
                  #                        -***-                        #
                  #######################################################


                         Program Version 4.2.0 -  RELEASE  -


 With contributions from (in alphabetic order):
   Daniel Aravena         : Magnetic Suceptibility
   Michael Atanasov       : Ab Initio Ligand Field Theory (pilot matlab implementation)
   Alexander A. Auer      : GIAO ZORA, VPT2
   Ute Becker             : Parallelization
   Giovanni Bistoni       : ED, misc. LED, open-shell LED, HFLED
   Martin Brehm           : Molecular dynamics
   Dmytro Bykov           : SCF Hessian
   Vijay G. Chilkuri      : MRCI spin determinant printing, contributions to CSF-ICE
   Dipayan Datta          : RHF DLPNO-CCSD density
   Achintya Kumar Dutta   : EOM-CC, STEOM-CC
   Dmitry Ganyushin       : Spin-Orbit,Spin-Spin,Magnetic field MRCI
   Miquel Garcia          : C-PCM Hessian, Gaussian charge scheme
   Yang Guo               : DLPNO-NEVPT2, CIM, IAO-localization
   Andreas Hansen         : Spin unrestricted coupled pair/coupled cluster methods
   Benjamin Helmich-Paris : CASSCF linear response (MC-RPA)
   Lee Huntington         : MR-EOM, pCC
   Robert Izsak           : Overlap fitted RIJCOSX, COSX-SCS-MP3, EOM
   Christian Kollmar      : KDIIS, OOCD, Brueckner-CCSD(T), CCSD density
   Simone Kossmann        : Meta GGA functionals, TD-DFT gradient, OOMP2, MP2 Hessian
   Martin Krupicka        : AUTO-CI
   Lucas Lang             : DCDCAS
   Dagmar Lenk            : GEPOL surface, SMD
   Dimitrios Liakos       : Extrapolation schemes; Compound Job, initial MDCI parallelization
   Dimitrios Manganas     : Further ROCIS development; embedding schemes
   Dimitrios Pantazis     : SARC Basis sets
   Taras Petrenko         : DFT Hessian,TD-DFT gradient, ASA, ECA, R-Raman, ABS, FL, XAS/XES, NRVS
   Peter Pinski           : DLPNO-MP2, DLPNO-MP2 Gradient
   Christoph Reimann      : Effective Core Potentials
   Marius Retegan         : Local ZFS, SOC
   Christoph Riplinger    : Optimizer, TS searches, QM/MM, DLPNO-CCSD(T), (RO)-DLPNO pert. Triples
   Tobias Risthaus        : Range-separated hybrids, TD-DFT gradient, RPA, STAB
   Michael Roemelt        : Original ROCIS implementation
   Masaaki Saitow         : Open-shell DLPNO-CCSD energy and density
   Barbara Sandhoefer     : DKH picture change effects
   Avijit Sen             : IP-ROCIS
   Kantharuban Sivalingam : CASSCF convergence, NEVPT2, FIC-MRCI
   Bernardo de Souza      : ESD, SOC TD-DFT
   Georgi Stoychev        : AutoAux, RI-MP2 NMR
   Willem Van den Heuvel  : Paramagnetic NMR
   Boris Wezisla          : Elementary symmetry handling
   Frank Wennmohs         : Technical directorship


 We gratefully acknowledge several colleagues who have allowed us to
 interface, adapt or use parts of their codes:
   Stefan Grimme, W. Hujo, H. Kruse,             : VdW corrections, initial TS optimization,
                  C. Bannwarth                     DFT functionals, gCP, sTDA/sTD-DF
   Ed Valeev, F. Pavosevic, A. Kumar             : LibInt (2-el integral package), F12 methods
   Garnet Chan, S. Sharma, J. Yang, R. Olivares  : DMRG
   Ulf Ekstrom                                   : XCFun DFT Library
   Mihaly Kallay                                 : mrcc  (arbitrary order and MRCC methods)
   Andreas Klamt, Michael Diedenhofen            : otool_cosmo (COSMO solvation model)
   Jiri Pittner, Ondrej Demel                    : Mk-CCSD
   Frank Weinhold                                : gennbo (NPA and NBO analysis)
   Christopher J. Cramer and Donald G. Truhlar   : smd solvation model
   Lars Goerigk                                  : TD-DFT with DH, B97 family of functionals
   V. Asgeirsson, H. Jonsson                     : NEB implementation
   FAccTs GmbH                                   : IRC, NEB, NEB-TS, Multilevel, MM, QM/MM, CI optimization
   S Lehtola, MJT Oliveira, MAL Marques          : LibXC Library


 Your calculation uses the libint2 library for the computation of 2-el integrals
 For citations please refer to: http://libint.valeyev.net

 Your ORCA version has been built with support for libXC version: 4.2.3
 For citations please refer to: https://tddft.org/programs/libxc/

 This ORCA versions uses:
   CBLAS   interface :  Fast vector & matrix operations
   LAPACKE interface :  Fast linear algebra routines
   SCALAPACK package :  Parallel linear algebra routines


Your calculation utilizes the DFT-NL dispersion correction.
Cite in your paper:
Vydrov, O. A.; Van Voorhis, T. J. Chem. Phys. 2010, 133, 244103
Hujo, W.; Grimme, S. J. Chem. Theory Comput. 2011, 7, 3866 
   

----- Orbital basis set information -----
Your calculation utilizes the basis: def2-TZVPPD
   F. Weigend and R. Ahlrichs, Phys. Chem. Chem. Phys. 7, 3297 (2005).
   D. Rappoport and F. Furche, J. Chem. Phys. 133 134105 (2010).

----- AuxJK basis set information -----
Your calculation utilizes the auxiliary basis: def2/JK
   H-Ba, Hf-Rn: F. Weigend, J. Comput. Chem. 29, 167 (2008).

================================================================================
                                        WARNINGS
                       Please study these warnings very carefully!
================================================================================


WARNING: your system is open-shell and RHF/RKS was chosen
  ===> : WILL SWITCH to UHF/UKS


INFO   : the flag for use of LIBINT has been found!

================================================================================
                                       INPUT FILE
================================================================================
NAME = Cu03N0_LIN.in
|  1> #
|  2> # Cu03N0_LIN wB97X-V/Def2-TZVPPD
|  3> #
|  4> ! wb97x-v def2-tzvppd def2/jk grid4 nofinalgrid
|  5> 
|  6> *xyz 0 2
|  7> Cu       0.000000    0.000000    0.000000 
|  8> Cu       0.000000    0.000000    2.291099 
|  9> Cu       0.000000    0.000000   -2.291099 
| 10> *
| 11> 
| 12> %maxcore 5000
| 13> 
| 14> %pal
| 15> nprocs = 24
| 16> end
| 17> 
| 18> 
| 19>                          ****END OF INPUT****
================================================================================

                       ****************************
                       * Single Point Calculation *
                       ****************************

---------------------------------
CARTESIAN COORDINATES (ANGSTROEM)
---------------------------------
  Cu     0.000000    0.000000    0.000000
  Cu     0.000000    0.000000    2.291099
  Cu     0.000000    0.000000   -2.291099

----------------------------
CARTESIAN COORDINATES (A.U.)
----------------------------
  NO LB      ZA    FRAG     MASS         X           Y           Z
   0 Cu   29.0000    0    63.550    0.000000    0.000000    0.000000
   1 Cu   29.0000    0    63.550    0.000000    0.000000    4.329550
   2 Cu   29.0000    0    63.550    0.000000    0.000000   -4.329550

--------------------------------
INTERNAL COORDINATES (ANGSTROEM)
--------------------------------
 Cu     0   0   0     0.000000000000     0.00000000     0.00000000
 Cu     1   0   0     2.291099000000     0.00000000     0.00000000
 Cu     1   2   0     2.291099000000   180.00000000     0.00000000

---------------------------
INTERNAL COORDINATES (A.U.)
---------------------------
 Cu     0   0   0     0.000000000000     0.00000000     0.00000000
 Cu     1   0   0     4.329549655701     0.00000000     0.00000000
 Cu     1   2   0     4.329549655701   180.00000000     0.00000000

---------------------
BASIS SET INFORMATION
---------------------
There are 1 groups of distinct atoms

 Group   1 Type Cu  : 17s13p7d2f1g contracted to 6s6p4d2f1g pattern {842111/631111/4111/11/1}

Atom   0Cu   basis set group =>   1
Atom   1Cu   basis set group =>   1
Atom   2Cu   basis set group =>   1
----------------------------------
AUXILIARY/JK BASIS SET INFORMATION
----------------------------------
There are 1 groups of distinct atoms

 Group   1 Type Cu  : 19s14p12d10f7g3h1i contracted to 16s13p11d9f5g3h1i pattern {4111111111111111/2111111111111/21111111111/211111111/31111/111/1}

Atom   0Cu   basis set group =>   1
Atom   1Cu   basis set group =>   1
Atom   2Cu   basis set group =>   1


           ************************************************************
           *        Program running with 24 parallel MPI-processes    *
           *              working on a common directory               *
           ************************************************************
------------------------------------------------------------------------------
                           ORCA GTO INTEGRAL CALCULATION
------------------------------------------------------------------------------

                         BASIS SET STATISTICS AND STARTUP INFO

 # of primitive gaussian shells          ...  120
 # of primitive gaussian functions       ...  342
 # of contracted shells                  ...   57
 # of contracted basis functions         ...  201
 Highest angular momentum                ...    4
 Maximum contraction depth               ...    8
 Integral package used                   ... LIBINT
 Integral threshhold            Thresh   ...  1.000e-10
 Primitive cut-off              TCut     ...  1.000e-11


------------------------------ INTEGRAL EVALUATION ----------------------------


 * One electron integrals 
 Pre-screening matrix                    ... done
 Shell pair data                         ... done (   0.000 sec)



           ************************************************************
           *        Program running with 24 parallel MPI-processes    *
           *              working on a common directory               *
           ************************************************************
-------------------------------------------------------------------------------
                                 ORCA SCF
-------------------------------------------------------------------------------

------------
SCF SETTINGS
------------
Hamiltonian:
 Density Functional     Method          .... DFT(GTOs)
 Exchange Functional    Exchange        .... WB97X-V
 Correlation Functional Correlation     .... WB97X-V
 Gradients option       PostSCFGGA      .... off
 Hybrid DFT is turned on
   Fraction HF Exchange ScalHFX         ....  0.167000
   Scaling of DF-GGA-X  ScalDFX         ....  0.000000
   Scaling of DF-GGA-C  ScalDFC         ....  1.000000
   Scaling of DF-LDA-C  ScalLDAC        ....  1.000000
   Perturbative correction              ....  0.000000
   Density functional embedding theory  .... OFF
 Long-range corrected/Screened/Range-Separated Hybrid DFT is turned on
   Amount of maximum screened exact exchange              ....  0.833000
   Range separation parameter mu (erf(mu*r12)/r12)        ....  0.300000
   NL short-range parameter             ....  6.000000
   NL long-range parameter              ....  0.010000


General Settings:
 Integral files         IntName         .... Cu03N0_LIN
 Hartree-Fock type      HFTyp           .... UHF
 Total Charge           Charge          ....    0
 Multiplicity           Mult            ....    2
 Number of Electrons    NEL             ....   87
 Basis Dimension        Dim             ....  201
 Nuclear Repulsion      ENuc            ....    485.6163266846 Eh

Convergence Acceleration:
 DIIS                   CNVDIIS         .... on
   Start iteration      DIISMaxIt       ....    12
   Startup error        DIISStart       ....  0.200000
   # of expansion vecs  DIISMaxEq       ....     5
   Bias factor          DIISBfac        ....   1.050
   Max. coefficient     DIISMaxC        ....  10.000
 Newton-Raphson         CNVNR           .... off
 SOSCF                  CNVSOSCF        .... off
 Level Shifting         CNVShift        .... on
   Level shift para.    LevelShift      ....    0.2500
   Turn off err/grad.   ShiftErr        ....    0.0010
 Zerner damping         CNVZerner       .... off
 Static damping         CNVDamp         .... on
   Fraction old density DampFac         ....    0.7000
   Max. Damping (<1)    DampMax         ....    0.9800
   Min. Damping (>=0)   DampMin         ....    0.0000
   Turn off err/grad.   DampErr         ....    0.1000
 Fernandez-Rico         CNVRico         .... off

SCF Procedure:
 Maximum # iterations   MaxIter         ....   125
 SCF integral mode      SCFMode         .... Direct
   Integral package                     .... LIBINT
 Reset frequency        DirectResetFreq ....    20
 Integral Threshold     Thresh          ....  1.000e-10 Eh
 Primitive CutOff       TCut            ....  1.000e-11 Eh

Convergence Tolerance:
 Convergence Check Mode ConvCheckMode   .... Total+1el-Energy
 Convergence forced     ConvForced      .... 0
 Energy Change          TolE            ....  1.000e-06 Eh
 1-El. energy change                    ....  1.000e-03 Eh
 DIIS Error             TolErr          ....  1.000e-06


Diagonalization of the overlap matrix:
Smallest eigenvalue                        ... 3.321e-04
Time for diagonalization                   ...    0.008 sec
Threshold for overlap eigenvalues          ... 1.000e-08
Number of eigenvalues below threshold      ... 0
Time for construction of square roots      ...    0.005 sec
Total time needed                          ...    0.013 sec

-------------------
DFT GRID GENERATION
-------------------

General Integration Accuracy     IntAcc      ...  4.670
Radial Grid Type                 RadialGrid  ... Gauss-Chebyshev
Angular Grid (max. acc.)         AngularGrid ... Lebedev-302
Angular grid pruning method      GridPruning ... 3 (G Style)
Weight generation scheme         WeightScheme... Becke
Basis function cutoff            BFCut       ...    1.0000e-10
Integration weight cutoff        WCut        ...    1.0000e-14
Grids for H and He will be reduced by one unit

# of grid points (after initial pruning)     ...  28668 (   0.0 sec)
# of grid points (after weights+screening)   ...  28508 (   0.0 sec)
nearest neighbour list constructed           ...    0.0 sec
Grid point re-assignment to atoms done       ...    0.0 sec
Grid point division into batches done        ...    0.2 sec
Reduced shell lists constructed in    0.2 sec

Total number of grid points                  ...    28508
Total number of batches                      ...      447
Average number of points per batch           ...       63
Average number of grid points per atom       ...     9503
Average number of shells per batch           ...    18.10 (31.75%)
Average number of basis functions per batch  ...    52.30 (26.02%)
Average number of large shells per batch     ...    15.95 (88.12%)
Average number of large basis fcns per batch ...    46.25 (88.43%)
Maximum spatial batch extension              ...  26.18, 26.18,  4.32 au
Average spatial batch extension              ...   0.42,  0.42,  0.18 au

Time for grid setup =    0.266 sec

------------------------------
INITIAL GUESS: MODEL POTENTIAL
------------------------------
Loading Hartree-Fock densities                     ... done
Calculating cut-offs                               ... done
Setting up the integral package                    ... done
Initializing the effective Hamiltonian             ... done
Starting the Coulomb interaction                   ... done (   0.0 sec)
Reading the grid                                   ... done
Mapping shells                                     ... done
Starting the XC term evaluation                    ... done (   0.0 sec)
  promolecular density results
     # of electrons  =     87.000073666
     EX              =   -151.101215658
     EC              =     -5.387979391
     EX+EC           =   -156.489195049
Transforming the Hamiltonian                       ... done (   0.0 sec)
Diagonalizing the Hamiltonian                      ... done (   0.0 sec)
Back transforming the eigenvectors                 ... done (   0.0 sec)
Now organizing SCF variables                       ... done
                      ------------------
                      INITIAL GUESS DONE (   0.4 sec)
                      ------------------
--------------
SCF ITERATIONS
--------------
ITER       Energy         Delta-E        Max-DP      RMS-DP      [F,P]     Damp
               ***  Starting incremental Fock matrix formation  ***
  0  -4911.6702868927   0.000000000000 0.33957567  0.00555251  1.9276349 0.7000
  1  -4916.8894836989  -5.219196806213 0.21249726  0.00301579  0.5180930 0.7000
  2  -4918.4380122325  -1.548528533543 0.08182162  0.00149123  0.2927262 0.7000
  3  -4919.3030938223  -0.865081589790 0.09442188  0.00142170  0.3088862 0.7000
  4  -4919.9208646949  -0.617770872612 0.09092283  0.00130918  0.2186174 0.7000
                               ***Turning on DIIS***
  5  -4920.3587524268  -0.437887731911 0.08097454  0.00109749  0.1357203 0.7000
  6  -4920.6689920089  -0.310239582067 0.25515019  0.00329365  0.0833039 0.0000
  7  -4921.4172425244  -0.748250515577 0.07557694  0.00078920  0.0190622 0.0000
  8  -4921.4196951494  -0.002452624990 0.01452439  0.00015999  0.0345380 0.0000
  9  -4921.4223384705  -0.002643321090 0.01114502  0.00013616  0.0053990 0.0000
 10  -4921.4228828609  -0.000544390412 0.00893032  0.00009075  0.0062746 0.0000
 11  -4921.4230953540  -0.000212493052 0.00797732  0.00007718  0.0057388 0.0000
 12  -4921.4232808890  -0.000185535042 0.00647221  0.00006519  0.0017365 0.0000
 13  -4921.4233583774  -0.000077488383 0.00326566  0.00003849  0.0010233 0.0000
 14  -4921.4233874711  -0.000029093680 0.00332409  0.00004602  0.0006025 0.0000
 15  -4921.4234084432  -0.000020972152 0.00066013  0.00000939  0.0002948 0.0000
 16  -4921.4234109354  -0.000002492157 0.00055201  0.00000661  0.0004046 0.0000
 17  -4921.4234120509  -0.000001115464 0.00036677  0.00000424  0.0001770 0.0000
 18  -4921.4234125149  -0.000000464019 0.00034296  0.00000359  0.0001193 0.0000
 19  -4921.4234127822  -0.000000267296 0.00032496  0.00000285  0.0000418 0.0000
               *** Restarting incremental Fock matrix formation ***
                                   *** Resetting DIIS ***
                 **** Energy Check signals convergence ****

               *****************************************************
               *                     SUCCESS                       *
               *           SCF CONVERGED AFTER  20 CYCLES          *
               *****************************************************


Setting up the DFT-NL grid :

General Integration Accuracy     IntAcc      ...  4.340
Radial Grid Type                 RadialGrid  ... Gauss-Chebyshev
Angular Grid (max. acc.)         AngularGrid ... Lebedev-110
Angular grid pruning method      GridPruning ... 3 (G Style)
Weight generation scheme         WeightScheme... Becke
Basis function cutoff            BFCut       ...    1.0000e-10
Integration weight cutoff        WCut        ...    1.0000e-14
Grids for H and He will be reduced by one unit

# of grid points (after initial pruning)     ...   8736 (   0.0 sec)
# of grid points (after weights+screening)   ...   8684 (   0.0 sec)
nearest neighbour list constructed           ...    0.0 sec
Grid point re-assignment to atoms done       ...    0.0 sec
Grid point division into batches done        ...    0.0 sec
Reduced shell lists constructed in    0.0 sec

Total number of grid points                  ...     8684
Total number of batches                      ...      136
Average number of points per batch           ...       63
Average number of grid points per atom       ...     2895
Average number of shells per batch           ...    19.71 (34.59%)
Average number of basis functions per batch  ...    60.29 (29.99%)
Average number of large shells per batch     ...    17.00 (86.23%)
Average number of large basis fcns per batch ...    49.86 (82.70%)
Maximum spatial batch extension              ...  17.92, 26.34,  4.30 au
Average spatial batch extension              ...   0.74,  0.89,  0.16 au

Final grid set up in    0.0 sec

-------------------------------------------------------------------------------
                         DFT-NL dispersion correction                          
-------------------------------------------------------------------------------

SC Energy -4921.423412890 
NL    Energy 0.366127700 
SC+NL Energy -4921.057285189 
NL done in    0.0 sec
-------------------------------------------------------------------------------

----------------
TOTAL SCF ENERGY
----------------

Total Energy       :        -4921.05728519 Eh         -133908.77652 eV

Components:
Nuclear Repulsion  :          485.61632668 Eh           13214.29205 eV
Electronic Energy  :        -5406.67361187 Eh         -147123.06857 eV
One Electron Energy:        -7834.80338393 Eh         -213195.83874 eV
Two Electron Energy:         2428.12977206 Eh           66072.77017 eV

Virial components:
Potential Energy   :        -9835.21840630 Eh         -267629.89888 eV
Kinetic Energy     :         4914.16112111 Eh          133721.12236 eV
Virial Ratio       :            2.00140332


DFT components:
N(Alpha)           :       44.000000945421 electrons
N(Beta)            :       43.000000681438 electrons
N(Total)           :       87.000001626859 electrons
E(X)               :     -151.393912568443 Eh       
E(C)               :       -5.412276537946 Eh       
NL Energy, E(C,NL) :        0.366127700107 Eh       
E(XC)              :     -156.440061406282 Eh       
DFET-embed. en.    :        0.000000000000 Eh       

---------------
SCF CONVERGENCE
---------------

  Last Energy change         ...   -1.0733e-07  Tolerance :   1.0000e-06
  Last MAX-Density change    ...    6.3325e-05  Tolerance :   1.0000e-05
  Last RMS-Density change    ...    7.1490e-07  Tolerance :   1.0000e-06
  Last DIIS Error            ...    2.0466e-05  Tolerance :   1.0000e-06

             **** THE GBW FILE WAS UPDATED (Cu03N0_LIN.gbw) ****
             **** DENSITY FILE WAS UPDATED (Cu03N0_LIN.scfp) ****
             **** ENERGY FILE WAS UPDATED (Cu03N0_LIN.en.tmp) ****
----------------------
UHF SPIN CONTAMINATION
----------------------

Warning: in a DFT calculation there is little theoretical justification to 
         calculate <S**2> as in Hartree-Fock theory. We will do it anyways
         but you should keep in mind that the values have only limited relevance

Expectation value of <S**2>     :     0.790272
Ideal value S*(S+1) for S=0.5   :     0.750000
Deviation                       :     0.040272

             **** THE GBW FILE WAS UPDATED (Cu03N0_LIN.gbw) ****
             **** DENSITY FILE WAS UPDATED (Cu03N0_LIN.scfp) ****
----------------
ORBITAL ENERGIES
----------------
                 SPIN UP ORBITALS
  NO   OCC          E(Eh)            E(eV) 
   0   1.0000    -322.850306     -8785.2035 
   1   1.0000    -322.850302     -8785.2034 
   2   1.0000    -322.832474     -8784.7182 
   3   1.0000     -38.829171     -1056.5955 
   4   1.0000     -38.829148     -1056.5948 
   5   1.0000     -38.815142     -1056.2137 
   6   1.0000     -34.026722      -925.9142 
   7   1.0000     -34.026718      -925.9141 
   8   1.0000     -34.025871      -925.8910 
   9   1.0000     -34.025870      -925.8910 
  10   1.0000     -34.025867      -925.8909 
  11   1.0000     -34.025867      -925.8909 
  12   1.0000     -34.012788      -925.5350 
  13   1.0000     -34.011454      -925.4987 
  14   1.0000     -34.011453      -925.4987 
  15   1.0000      -4.380893      -119.2101 
  16   1.0000      -4.380877      -119.2097 
  17   1.0000      -4.364302      -118.7587 
  18   1.0000      -2.878273       -78.3218 
  19   1.0000      -2.877689       -78.3059 
  20   1.0000      -2.874372       -78.2157 
  21   1.0000      -2.874372       -78.2156 
  22   1.0000      -2.874369       -78.2156 
  23   1.0000      -2.874369       -78.2156 
  24   1.0000      -2.861682       -77.8703 
  25   1.0000      -2.856963       -77.7419 
  26   1.0000      -2.856962       -77.7419 
  27   1.0000      -0.412170       -11.2157 
  28   1.0000      -0.389270       -10.5926 
  29   1.0000      -0.389269       -10.5926 
  30   1.0000      -0.374427       -10.1887 
  31   1.0000      -0.373971       -10.1763 
  32   1.0000      -0.373970       -10.1763 
  33   1.0000      -0.370501       -10.0819 
  34   1.0000      -0.370494       -10.0817 
  35   1.0000      -0.369233       -10.0473 
  36   1.0000      -0.369226       -10.0472 
  37   1.0000      -0.348268        -9.4769 
  38   1.0000      -0.348258        -9.4766 
  39   1.0000      -0.336708        -9.1623 
  40   1.0000      -0.336572        -9.1586 
  41   1.0000      -0.336572        -9.1586 
  42   1.0000      -0.309015        -8.4087 
  43   1.0000      -0.260571        -7.0905 
  44   0.0000      -0.003399        -0.0925 
  45   0.0000       0.021060         0.5731 
  46   0.0000       0.021060         0.5731 
  47   0.0000       0.039828         1.0838 
  48   0.0000       0.057494         1.5645 
  49   0.0000       0.057494         1.5645 
  50   0.0000       0.092965         2.5297 
  51   0.0000       0.111327         3.0294 
  52   0.0000       0.113422         3.0864 
  53   0.0000       0.113422         3.0864 
  54   0.0000       0.137603         3.7444 
  55   0.0000       0.173606         4.7241 
  56   0.0000       0.173606         4.7241 
  57   0.0000       0.176187         4.7943 
  58   0.0000       0.196969         5.3598 
  59   0.0000       0.196969         5.3598 
  60   0.0000       0.228593         6.2203 
  61   0.0000       0.228593         6.2203 
  62   0.0000       0.232863         6.3365 
  63   0.0000       0.263945         7.1823 
  64   0.0000       0.263946         7.1823 
  65   0.0000       0.269966         7.3462 
  66   0.0000       0.269967         7.3462 
  67   0.0000       0.285456         7.7676 
  68   0.0000       0.297048         8.0831 
  69   0.0000       0.297048         8.0831 
  70   0.0000       0.297235         8.0882 
  71   0.0000       0.350975         9.5505 
  72   0.0000       0.350975         9.5505 
  73   0.0000       0.354987         9.6597 
  74   0.0000       0.410006        11.1568 
  75   0.0000       0.410006        11.1568 
  76   0.0000       0.440674        11.9914 
  77   0.0000       0.530843        14.4450 
  78   0.0000       0.530843        14.4450 
  79   0.0000       0.568168        15.4606 
  80   0.0000       0.641748        17.4628 
  81   0.0000       0.708789        19.2871 
  82   0.0000       0.751386        20.4462 
  83   0.0000       0.751386        20.4463 
  84   0.0000       0.779815        21.2199 
  85   0.0000       0.779816        21.2199 
  86   0.0000       0.842784        22.9333 
  87   0.0000       0.842784        22.9333 
  88   0.0000       0.859696        23.3935 
  89   0.0000       0.963843        26.2275 
  90   0.0000       0.963846        26.2276 
  91   0.0000       0.993037        27.0219 
  92   0.0000       0.998894        27.1813 
  93   0.0000       0.998894        27.1813 
  94   0.0000       1.004627        27.3373 
  95   0.0000       1.004630        27.3374 
  96   0.0000       1.065215        28.9860 
  97   0.0000       1.065215        28.9860 
  98   0.0000       1.067873        29.0583 
  99   0.0000       1.081129        29.4190 
 100   0.0000       1.081134        29.4192 
 101   0.0000       1.281108        34.8607 
 102   0.0000       1.281109        34.8607 
 103   0.0000       1.316328        35.8191 
 104   0.0000       1.604432        43.6588 
 105   0.0000       3.090706        84.1024 
 106   0.0000       3.091069        84.1123 
 107   0.0000       3.091070        84.1123 
 108   0.0000       3.187533        86.7372 
 109   0.0000       3.188660        86.7678 
 110   0.0000       3.188660        86.7678 
 111   0.0000       3.214832        87.4800 
 112   0.0000       3.214833        87.4800 
 113   0.0000       3.263309        88.7991 
 114   0.0000       3.334100        90.7255 
 115   0.0000       3.478483        94.6543 
 116   0.0000       3.505599        95.3922 
 117   0.0000       3.538745        96.2942 
 118   0.0000       3.538745        96.2942 
 119   0.0000       3.542379        96.3930 
 120   0.0000       3.542380        96.3931 
 121   0.0000       3.551934        96.6530 
 122   0.0000       3.551946        96.6534 
 123   0.0000       3.553124        96.6854 
 124   0.0000       3.553137        96.6858 
 125   0.0000       3.555581        96.7523 
 126   0.0000       3.555581        96.7523 
 127   0.0000       3.555583        96.7523 
 128   0.0000       3.555583        96.7523 
 129   0.0000       3.578633        97.3796 
 130   0.0000       3.578653        97.3801 
 131   0.0000       3.582541        97.4859 
 132   0.0000       3.582541        97.4859 
 133   0.0000       3.598110        97.9095 
 134   0.0000       3.598111        97.9096 
 135   0.0000       3.603850        98.0657 
 136   0.0000       3.706041       100.8465 
 137   0.0000       3.779972       102.8583 
 138   0.0000       3.780020       102.8596 
 139   0.0000       3.802180       103.4626 
 140   0.0000       3.802224       103.4638 
 141   0.0000       3.846915       104.6799 
 142   0.0000       3.846915       104.6799 
 143   0.0000       3.854676       104.8911 
 144   0.0000       3.854728       104.8925 
 145   0.0000       3.902129       106.1823 
 146   0.0000       3.908540       106.3568 
 147   0.0000       3.908540       106.3568 
 148   0.0000       4.007872       109.0597 
 149   0.0000       4.007873       109.0598 
 150   0.0000       4.138819       112.6230 
 151   0.0000       4.226449       115.0075 
 152   0.0000       4.575512       124.5060 
 153   0.0000      13.085443       356.0730 
 154   0.0000      13.085444       356.0730 
 155   0.0000      13.085871       356.0847 
 156   0.0000      13.085929       356.0862 
 157   0.0000      13.086226       356.0943 
 158   0.0000      13.086226       356.0943 
 159   0.0000      13.086517       356.1022 
 160   0.0000      13.086575       356.1038 
 161   0.0000      13.086619       356.1050 
 162   0.0000      13.087118       356.1186 
 163   0.0000      13.087530       356.1298 
 164   0.0000      13.087530       356.1298 
 165   0.0000      13.087544       356.1302 
 166   0.0000      13.087544       356.1302 
 167   0.0000      13.088968       356.1689 
 168   0.0000      13.088969       356.1689 
 169   0.0000      13.089130       356.1733 
 170   0.0000      13.089130       356.1733 
 171   0.0000      13.103201       356.5562 
 172   0.0000      13.103201       356.5562 
 173   0.0000      13.103307       356.5591 
 174   0.0000      13.104333       356.5870 
 175   0.0000      13.105825       356.6276 
 176   0.0000      13.105825       356.6276 
 177   0.0000      13.106587       356.6484 
 178   0.0000      13.107754       356.6801 
 179   0.0000      13.107974       356.6861 
 180   0.0000      13.262217       360.8833 
 181   0.0000      13.262218       360.8833 
 182   0.0000      13.263159       360.9089 
 183   0.0000      13.263325       360.9134 
 184   0.0000      13.264242       360.9384 
 185   0.0000      13.264406       360.9428 
 186   0.0000      13.265088       360.9614 
 187   0.0000      13.265088       360.9614 
 188   0.0000      13.265088       360.9614 
 189   0.0000      13.265088       360.9614 
 190   0.0000      13.269261       361.0749 
 191   0.0000      13.278645       361.3303 
 192   0.0000      13.278646       361.3303 
 193   0.0000      13.280081       361.3694 
 194   0.0000      13.280303       361.3754 
 195   0.0000      13.281467       361.4071 
 196   0.0000      13.281467       361.4071 
 197   0.0000      13.296754       361.8231 
 198   0.0000      13.296755       361.8231 
 199   0.0000      13.357536       363.4770 
 200   0.0000      13.398225       364.5842 

                 SPIN DOWN ORBITALS
  NO   OCC          E(Eh)            E(eV) 
   0   1.0000    -322.849557     -8785.1831 
   1   1.0000    -322.849554     -8785.1830 
   2   1.0000    -322.832496     -8784.7188 
   3   1.0000     -38.829127     -1056.5943 
   4   1.0000     -38.829104     -1056.5936 
   5   1.0000     -38.815683     -1056.2284 
   6   1.0000     -34.026964      -925.9208 
   7   1.0000     -34.026960      -925.9207 
   8   1.0000     -34.025866      -925.8909 
   9   1.0000     -34.025866      -925.8909 
  10   1.0000     -34.025863      -925.8908 
  11   1.0000     -34.025863      -925.8908 
  12   1.0000     -34.013020      -925.5413 
  13   1.0000     -34.011740      -925.5065 
  14   1.0000     -34.011740      -925.5065 
  15   1.0000      -4.380323      -119.1946 
  16   1.0000      -4.380308      -119.1943 
  17   1.0000      -4.365324      -118.7865 
  18   1.0000      -2.878092       -78.3169 
  19   1.0000      -2.877528       -78.3015 
  20   1.0000      -2.874451       -78.2178 
  21   1.0000      -2.874451       -78.2178 
  22   1.0000      -2.874435       -78.2174 
  23   1.0000      -2.874435       -78.2174 
  24   1.0000      -2.862094       -77.8815 
  25   1.0000      -2.858051       -77.7715 
  26   1.0000      -2.858051       -77.7715 
  27   1.0000      -0.408074       -11.1042 
  28   1.0000      -0.387461       -10.5434 
  29   1.0000      -0.387461       -10.5433 
  30   1.0000      -0.373923       -10.1750 
  31   1.0000      -0.372241       -10.1292 
  32   1.0000      -0.372241       -10.1292 
  33   1.0000      -0.369008       -10.0412 
  34   1.0000      -0.369001       -10.0410 
  35   1.0000      -0.367610       -10.0032 
  36   1.0000      -0.367604       -10.0030 
  37   1.0000      -0.349214        -9.5026 
  38   1.0000      -0.349204        -9.5023 
  39   1.0000      -0.337298        -9.1783 
  40   1.0000      -0.337298        -9.1783 
  41   1.0000      -0.332542        -9.0489 
  42   1.0000      -0.278543        -7.5795 
  43   0.0000      -0.066013        -1.7963 
  44   0.0000       0.014087         0.3833 
  45   0.0000       0.026283         0.7152 
  46   0.0000       0.026283         0.7152 
  47   0.0000       0.052750         1.4354 
  48   0.0000       0.067242         1.8297 
  49   0.0000       0.067242         1.8297 
  50   0.0000       0.101710         2.7677 
  51   0.0000       0.115969         3.1557 
  52   0.0000       0.115970         3.1557 
  53   0.0000       0.120899         3.2898 
  54   0.0000       0.142223         3.8701 
  55   0.0000       0.179379         4.8811 
  56   0.0000       0.179379         4.8811 
  57   0.0000       0.182838         4.9753 
  58   0.0000       0.207936         5.6582 
  59   0.0000       0.207936         5.6582 
  60   0.0000       0.227278         6.1846 
  61   0.0000       0.227279         6.1846 
  62   0.0000       0.237926         6.4743 
  63   0.0000       0.262265         7.1366 
  64   0.0000       0.262266         7.1366 
  65   0.0000       0.271360         7.3841 
  66   0.0000       0.271360         7.3841 
  67   0.0000       0.287860         7.8331 
  68   0.0000       0.297288         8.0896 
  69   0.0000       0.297289         8.0896 
  70   0.0000       0.305401         8.3104 
  71   0.0000       0.350507         9.5378 
  72   0.0000       0.350508         9.5378 
  73   0.0000       0.354802         9.6547 
  74   0.0000       0.410123        11.1600 
  75   0.0000       0.410124        11.1600 
  76   0.0000       0.446078        12.1384 
  77   0.0000       0.533095        14.5062 
  78   0.0000       0.533095        14.5063 
  79   0.0000       0.570026        15.5112 
  80   0.0000       0.646654        17.5964 
  81   0.0000       0.712177        19.3793 
  82   0.0000       0.754363        20.5273 
  83   0.0000       0.754363        20.5273 
  84   0.0000       0.784445        21.3458 
  85   0.0000       0.784445        21.3458 
  86   0.0000       0.845137        22.9973 
  87   0.0000       0.845137        22.9974 
  88   0.0000       0.863183        23.4884 
  89   0.0000       0.968479        26.3537 
  90   0.0000       0.968486        26.3538 
  91   0.0000       0.997187        27.1348 
  92   0.0000       1.003746        27.3133 
  93   0.0000       1.003747        27.3133 
  94   0.0000       1.012763        27.5587 
  95   0.0000       1.012771        27.5589 
  96   0.0000       1.072568        29.1861 
  97   0.0000       1.072569        29.1861 
  98   0.0000       1.074401        29.2359 
  99   0.0000       1.083385        29.4804 
 100   0.0000       1.083391        29.4806 
 101   0.0000       1.285451        34.9789 
 102   0.0000       1.285451        34.9789 
 103   0.0000       1.322159        35.9778 
 104   0.0000       1.608996        43.7830 
 105   0.0000       3.093402        84.1758 
 106   0.0000       3.093403        84.1758 
 107   0.0000       3.093847        84.1879 
 108   0.0000       3.189081        86.7793 
 109   0.0000       3.191914        86.8564 
 110   0.0000       3.191914        86.8564 
 111   0.0000       3.215374        87.4948 
 112   0.0000       3.215374        87.4948 
 113   0.0000       3.265988        88.8720 
 114   0.0000       3.336240        90.7837 
 115   0.0000       3.481450        94.7351 
 116   0.0000       3.508379        95.4678 
 117   0.0000       3.539623        96.3180 
 118   0.0000       3.539624        96.3181 
 119   0.0000       3.545624        96.4813 
 120   0.0000       3.545624        96.4813 
 121   0.0000       3.555837        96.7592 
 122   0.0000       3.555849        96.7596 
 123   0.0000       3.557195        96.7962 
 124   0.0000       3.557206        96.7965 
 125   0.0000       3.560204        96.8781 
 126   0.0000       3.560204        96.8781 
 127   0.0000       3.560206        96.8781 
 128   0.0000       3.560206        96.8781 
 129   0.0000       3.577875        97.3589 
 130   0.0000       3.577896        97.3595 
 131   0.0000       3.581670        97.4622 
 132   0.0000       3.581670        97.4622 
 133   0.0000       3.600485        97.9742 
 134   0.0000       3.600485        97.9742 
 135   0.0000       3.604859        98.0932 
 136   0.0000       3.707103       100.8754 
 137   0.0000       3.781720       102.9058 
 138   0.0000       3.781766       102.9071 
 139   0.0000       3.804959       103.5382 
 140   0.0000       3.805001       103.5393 
 141   0.0000       3.849280       104.7442 
 142   0.0000       3.849280       104.7442 
 143   0.0000       3.854921       104.8977 
 144   0.0000       3.854972       104.8991 
 145   0.0000       3.904525       106.2475 
 146   0.0000       3.910543       106.4113 
 147   0.0000       3.910543       106.4113 
 148   0.0000       4.007830       109.0586 
 149   0.0000       4.007830       109.0586 
 150   0.0000       4.140337       112.6643 
 151   0.0000       4.227630       115.0397 
 152   0.0000       4.576664       124.5374 
 153   0.0000      13.084542       356.0485 
 154   0.0000      13.084542       356.0485 
 155   0.0000      13.085106       356.0638 
 156   0.0000      13.085164       356.0654 
 157   0.0000      13.085318       356.0696 
 158   0.0000      13.085318       356.0696 
 159   0.0000      13.085633       356.0782 
 160   0.0000      13.085753       356.0814 
 161   0.0000      13.085811       356.0830 
 162   0.0000      13.086120       356.0914 
 163   0.0000      13.086857       356.1115 
 164   0.0000      13.086857       356.1115 
 165   0.0000      13.086868       356.1118 
 166   0.0000      13.086868       356.1118 
 167   0.0000      13.088148       356.1466 
 168   0.0000      13.088148       356.1466 
 169   0.0000      13.088309       356.1510 
 170   0.0000      13.088309       356.1510 
 171   0.0000      13.102517       356.5376 
 172   0.0000      13.102517       356.5376 
 173   0.0000      13.102594       356.5397 
 174   0.0000      13.103621       356.5676 
 175   0.0000      13.105180       356.6101 
 176   0.0000      13.105180       356.6101 
 177   0.0000      13.105922       356.6303 
 178   0.0000      13.107441       356.6716 
 179   0.0000      13.107661       356.6776 
 180   0.0000      13.262529       360.8918 
 181   0.0000      13.262529       360.8918 
 182   0.0000      13.263639       360.9220 
 183   0.0000      13.263804       360.9264 
 184   0.0000      13.264730       360.9517 
 185   0.0000      13.264894       360.9561 
 186   0.0000      13.265002       360.9591 
 187   0.0000      13.265002       360.9591 
 188   0.0000      13.265002       360.9591 
 189   0.0000      13.265002       360.9591 
 190   0.0000      13.269380       361.0782 
 191   0.0000      13.279045       361.3412 
 192   0.0000      13.279066       361.3417 
 193   0.0000      13.279066       361.3417 
 194   0.0000      13.279267       361.3472 
 195   0.0000      13.280306       361.3755 
 196   0.0000      13.280306       361.3755 
 197   0.0000      13.296266       361.8098 
 198   0.0000      13.296266       361.8098 
 199   0.0000      13.357873       363.4862 
 200   0.0000      13.398054       364.5796 

                    ********************************
                    * MULLIKEN POPULATION ANALYSIS *
                    ********************************

--------------------------------------------
MULLIKEN ATOMIC CHARGES AND SPIN POPULATIONS
--------------------------------------------
   0 Cu:   -0.298035   -0.346997
   1 Cu:    0.149018    0.673499
   2 Cu:    0.149017    0.673498
Sum of atomic charges         :   -0.0000000
Sum of atomic spin populations:    1.0000000

-----------------------------------------------------
MULLIKEN REDUCED ORBITAL CHARGES AND SPIN POPULATIONS
-----------------------------------------------------
CHARGE
  0 Cus       :     7.324337  s :     7.324337
      pz      :     4.012337  p :    12.034595
      px      :     4.011129
      py      :     4.011129
      dz2     :     1.977950  d :     9.938846
      dxz     :     1.980735
      dyz     :     1.980736
      dx2y2   :     1.999712
      dxy     :     1.999713
      f0      :     0.000111  f :     0.000257
      f+1     :     0.000065
      f-1     :     0.000065
      f+2     :     0.000008
      f-2     :     0.000008
      f+3     :     0.000000
      f-3     :     0.000000
      g0      :     0.000000  g :     0.000001
      g+1     :     0.000000
      g-1     :     0.000000
      g+2     :     0.000000
      g-2     :     0.000000
      g+3     :     0.000000
      g-3     :     0.000000
      g+4     :     0.000000
      g-4     :     0.000000
  1 Cus       :     6.875313  s :     6.875313
      pz      :     3.993552  p :    12.011310
      px      :     4.008879
      py      :     4.008879
      dz2     :     1.973711  d :     9.964197
      dxz     :     1.995115
      dyz     :     1.995114
      dx2y2   :     2.000129
      dxy     :     2.000129
      f0      :     0.000056  f :     0.000161
      f+1     :     0.000042
      f-1     :     0.000042
      f+2     :     0.000011
      f-2     :     0.000011
      f+3     :     0.000000
      f-3     :     0.000000
      g0      :     0.000000  g :     0.000001
      g+1     :     0.000000
      g-1     :     0.000000
      g+2     :     0.000000
      g-2     :     0.000000
      g+3     :     0.000000
      g-3     :     0.000000
      g+4     :     0.000000
      g-4     :     0.000000
  2 Cus       :     6.875314  s :     6.875314
      pz      :     3.993552  p :    12.011310
      px      :     4.008879
      py      :     4.008879
      dz2     :     1.973711  d :     9.964197
      dxz     :     1.995115
      dyz     :     1.995114
      dx2y2   :     2.000129
      dxy     :     2.000129
      f0      :     0.000056  f :     0.000161
      f+1     :     0.000042
      f-1     :     0.000042
      f+2     :     0.000011
      f-2     :     0.000011
      f+3     :     0.000000
      f-3     :     0.000000
      g0      :     0.000000  g :     0.000001
      g+1     :     0.000000
      g-1     :     0.000000
      g+2     :     0.000000
      g-2     :     0.000000
      g+3     :     0.000000
      g-3     :     0.000000
      g+4     :     0.000000
      g-4     :     0.000000

SPIN
  0 Cus       :    -0.359080  s :    -0.359080
      pz      :     0.021944  p :     0.022239
      px      :     0.000148
      py      :     0.000147
      dz2     :    -0.005084  d :    -0.010172
      dxz     :    -0.002586
      dyz     :    -0.002587
      dx2y2   :     0.000042
      dxy     :     0.000042
      f0      :     0.000013  f :     0.000016
      f+1     :     0.000001
      f-1     :     0.000001
      f+2     :     0.000000
      f-2     :     0.000000
      f+3     :    -0.000000
      f-3     :     0.000000
      g0      :     0.000000  g :     0.000000
      g+1     :     0.000000
      g-1     :     0.000000
      g+2     :    -0.000000
      g-2     :    -0.000000
      g+3     :    -0.000000
      g-3     :    -0.000000
      g+4     :    -0.000000
      g-4     :     0.000000
  1 Cus       :     0.669160  s :     0.669160
      pz      :     0.008349  p :     0.010948
      px      :     0.001299
      py      :     0.001300
      dz2     :    -0.006405  d :    -0.006610
      dxz     :    -0.000081
      dyz     :    -0.000081
      dx2y2   :    -0.000021
      dxy     :    -0.000021
      f0      :     0.000000  f :     0.000001
      f+1     :     0.000000
      f-1     :     0.000000
      f+2     :    -0.000000
      f-2     :    -0.000000
      f+3     :     0.000000
      f-3     :    -0.000000
      g0      :    -0.000000  g :    -0.000000
      g+1     :    -0.000000
      g-1     :    -0.000000
      g+2     :     0.000000
      g-2     :     0.000000
      g+3     :    -0.000000
      g-3     :    -0.000000
      g+4     :     0.000000
      g-4     :    -0.000000
  2 Cus       :     0.669159  s :     0.669159
      pz      :     0.008348  p :     0.010947
      px      :     0.001299
      py      :     0.001300
      dz2     :    -0.006405  d :    -0.006610
      dxz     :    -0.000081
      dyz     :    -0.000081
      dx2y2   :    -0.000021
      dxy     :    -0.000021
      f0      :     0.000000  f :     0.000001
      f+1     :     0.000000
      f-1     :     0.000000
      f+2     :    -0.000000
      f-2     :    -0.000000
      f+3     :     0.000000
      f-3     :    -0.000000
      g0      :    -0.000000  g :    -0.000000
      g+1     :    -0.000000
      g-1     :    -0.000000
      g+2     :     0.000000
      g-2     :     0.000000
      g+3     :    -0.000000
      g-3     :    -0.000000
      g+4     :     0.000000
      g-4     :    -0.000000


                     *******************************
                     * LOEWDIN POPULATION ANALYSIS *
                     *******************************

-------------------------------------------
LOEWDIN ATOMIC CHARGES AND SPIN POPULATIONS
-------------------------------------------
   0 Cu:   -0.253742    0.390128
   1 Cu:    0.126871    0.304936
   2 Cu:    0.126871    0.304936

----------------------------------------------------
LOEWDIN REDUCED ORBITAL CHARGES AND SPIN POPULATIONS
----------------------------------------------------
CHARGE
  0 Cus       :     6.736312  s :     6.736312
      pz      :     4.464654  p :    12.491478
      px      :     4.013411
      py      :     4.013412
      dz2     :     2.066973  d :    10.025251
      dxz     :     1.979397
      dyz     :     1.979398
      dx2y2   :     1.999741
      dxy     :     1.999741
      f0      :     0.000376  f :     0.000699
      f+1     :     0.000150
      f-1     :     0.000150
      f+2     :     0.000012
      f-2     :     0.000012
      f+3     :     0.000000
      f-3     :     0.000000
      g0      :     0.000001  g :     0.000002
      g+1     :     0.000001
      g-1     :     0.000001
      g+2     :     0.000000
      g-2     :     0.000000
      g+3     :     0.000000
      g-3     :     0.000000
      g+4     :     0.000000
      g-4     :     0.000000
  1 Cus       :     6.702773  s :     6.702773
      pz      :     4.140554  p :    12.162072
      px      :     4.010759
      py      :     4.010758
      dz2     :     2.022356  d :    10.007914
      dxz     :     1.992669
      dyz     :     1.992669
      dx2y2   :     2.000110
      dxy     :     2.000110
      f0      :     0.000158  f :     0.000369
      f+1     :     0.000093
      f-1     :     0.000093
      f+2     :     0.000013
      f-2     :     0.000013
      f+3     :     0.000000
      f-3     :     0.000000
      g0      :     0.000000  g :     0.000001
      g+1     :     0.000000
      g-1     :     0.000000
      g+2     :     0.000000
      g-2     :     0.000000
      g+3     :     0.000000
      g-3     :     0.000000
      g+4     :     0.000000
      g-4     :     0.000000
  2 Cus       :     6.702773  s :     6.702773
      pz      :     4.140554  p :    12.162072
      px      :     4.010759
      py      :     4.010758
      dz2     :     2.022356  d :    10.007914
      dxz     :     1.992669
      dyz     :     1.992669
      dx2y2   :     2.000110
      dxy     :     2.000110
      f0      :     0.000158  f :     0.000369
      f+1     :     0.000093
      f-1     :     0.000093
      f+2     :     0.000013
      f-2     :     0.000013
      f+3     :     0.000000
      f-3     :     0.000000
      g0      :     0.000000  g :     0.000001
      g+1     :     0.000000
      g-1     :     0.000000
      g+2     :     0.000000
      g-2     :     0.000000
      g+3     :     0.000000
      g-3     :     0.000000
      g+4     :     0.000000
      g-4     :     0.000000

SPIN
  0 Cus       :    -0.060345  s :    -0.060345
      pz      :     0.427394  p :     0.427626
      px      :     0.000116
      py      :     0.000116
      dz2     :     0.027434  d :     0.022750
      dxz     :    -0.002386
      dyz     :    -0.002387
      dx2y2   :     0.000045
      dxy     :     0.000045
      f0      :     0.000087  f :     0.000096
      f+1     :     0.000004
      f-1     :     0.000004
      f+2     :     0.000000
      f-2     :     0.000000
      f+3     :    -0.000000
      f-3     :     0.000000
      g0      :     0.000000  g :     0.000000
      g+1     :     0.000000
      g-1     :     0.000000
      g+2     :    -0.000000
      g-2     :    -0.000000
      g+3     :    -0.000000
      g-3     :    -0.000000
      g+4     :    -0.000000
      g-4     :     0.000000
  1 Cus       :     0.336818  s :     0.336818
      pz      :    -0.028391  p :    -0.025911
      px      :     0.001240
      py      :     0.001240
      dz2     :    -0.005699  d :    -0.005958
      dxz     :    -0.000107
      dyz     :    -0.000107
      dx2y2   :    -0.000022
      dxy     :    -0.000022
      f0      :    -0.000013  f :    -0.000013
      f+1     :     0.000000
      f-1     :     0.000000
      f+2     :    -0.000000
      f-2     :    -0.000000
      f+3     :     0.000000
      f-3     :    -0.000000
      g0      :    -0.000000  g :    -0.000000
      g+1     :    -0.000000
      g-1     :    -0.000000
      g+2     :     0.000000
      g-2     :     0.000000
      g+3     :    -0.000000
      g-3     :    -0.000000
      g+4     :     0.000000
      g-4     :    -0.000000
  2 Cus       :     0.336818  s :     0.336818
      pz      :    -0.028391  p :    -0.025911
      px      :     0.001240
      py      :     0.001240
      dz2     :    -0.005699  d :    -0.005958
      dxz     :    -0.000107
      dyz     :    -0.000107
      dx2y2   :    -0.000022
      dxy     :    -0.000022
      f0      :    -0.000013  f :    -0.000013
      f+1     :     0.000000
      f-1     :     0.000000
      f+2     :    -0.000000
      f-2     :    -0.000000
      f+3     :     0.000000
      f-3     :    -0.000000
      g0      :    -0.000000  g :    -0.000000
      g+1     :    -0.000000
      g-1     :    -0.000000
      g+2     :     0.000000
      g-2     :     0.000000
      g+3     :    -0.000000
      g-3     :    -0.000000
      g+4     :     0.000000
      g-4     :    -0.000000


                      *****************************
                      * MAYER POPULATION ANALYSIS *
                      *****************************

  NA   - Mulliken gross atomic population
  ZA   - Total nuclear charge
  QA   - Mulliken gross atomic charge
  VA   - Mayer's total valence
  BVA  - Mayer's bonded valence
  FA   - Mayer's free valence

  ATOM       NA         ZA         QA         VA         BVA        FA
  0 Cu    29.2980    29.0000    -0.2980     1.0164     0.8894     0.1270
  1 Cu    28.8510    29.0000     0.1490     0.9537     0.5073     0.4464
  2 Cu    28.8510    29.0000     0.1490     0.9537     0.5073     0.4464

  Mayer bond orders larger than 0.100000
B(  0-Cu,  1-Cu) :   0.4447 B(  0-Cu,  2-Cu) :   0.4447 

-------
TIMINGS
-------

Total SCF time: 0 days 0 hours 0 min 16 sec 

Total time                  ....      16.657 sec
Sum of individual times     ....      16.364 sec  ( 98.2%)

Fock matrix formation       ....      15.628 sec  ( 93.8%)
  XC integration            ....       0.841 sec  (  5.4% of F)
    Basis function eval.    ....       0.071 sec  (  8.4% of XC)
    Density eval.           ....       0.086 sec  ( 10.2% of XC)
    XC-Functional eval.     ....       0.040 sec  (  4.7% of XC)
    XC-Potential eval.      ....       0.170 sec  ( 20.2% of XC)
Diagonalization             ....       0.233 sec  (  1.4%)
Density matrix formation    ....       0.028 sec  (  0.2%)
Population analysis         ....       0.012 sec  (  0.1%)
Initial guess               ....       0.099 sec  (  0.6%)
Orbital Transformation      ....       0.000 sec  (  0.0%)
Orbital Orthonormalization  ....       0.000 sec  (  0.0%)
DIIS solution               ....       0.073 sec  (  0.4%)
Grid generation             ....       0.291 sec  (  1.7%)

-------------------------   --------------------
FINAL SINGLE POINT ENERGY     -4921.057285189400
-------------------------   --------------------


                            ***************************************
                            *     ORCA property calculations      *
                            ***************************************

                                    ---------------------
                                    Active property flags
                                    ---------------------
   (+) Dipole Moment


------------------------------------------------------------------------------
                       ORCA ELECTRIC PROPERTIES CALCULATION
------------------------------------------------------------------------------

Dipole Moment Calculation                       ... on
Quadrupole Moment Calculation                   ... off
Polarizability Calculation                      ... off
GBWName                                         ... Cu03N0_LIN.gbw
Electron density file                           ... Cu03N0_LIN.scfp
The origin for moment calculation is the CENTER OF MASS  = ( 0.000000,  0.000000  0.000000)

-------------
DIPOLE MOMENT
-------------
                                X             Y             Z
Electronic contribution:     -0.00000      -0.00000      -0.00000
Nuclear contribution   :      0.00000       0.00000       0.00000
                        -----------------------------------------
Total Dipole Moment    :     -0.00000      -0.00000      -0.00000
                        -----------------------------------------
Magnitude (a.u.)       :      0.00000
Magnitude (Debye)      :      0.00000



--------------------
Rotational spectrum 
--------------------
 
Rotational constants in cm-1:     0.000000     0.025268     0.025268 
Rotational constants in MHz :     0.000000   757.502973   757.502973 

 Dipole components along the rotational axes: 
x,y,z [a.u.] :    -0.000000    -0.000000    -0.000000 
x,y,z [Debye]:    -0.000000    -0.000000    -0.000000 

 

Timings for individual modules:

Sum of individual times         ...       17.775 sec (=   0.296 min)
GTO integral calculation        ...        0.749 sec (=   0.012 min)   4.2 %
SCF iterations                  ...       17.026 sec (=   0.284 min)  95.8 %
                             ****ORCA TERMINATED NORMALLY****
TOTAL RUN TIME: 0 days 0 hours 0 minutes 18 seconds 229 msec
