
                                 *****************
                                 * O   R   C   A *
                                 *****************

           --- An Ab Initio, DFT and Semiempirical electronic structure package ---

                  #######################################################
                  #                        -***-                        #
                  #          Department of theory and spectroscopy      #
                  #               Directorship: Frank Neese             #
                  #        Max Planck Institute fuer Kohlenforschung    #
                  #                Kaiser Wilhelm Platz 1               #
                  #                 D-45470 Muelheim/Ruhr               #
                  #                      Germany                        #
                  #                                                     #
                  #                  All rights reserved                #
                  #                        -***-                        #
                  #######################################################


                         Program Version 4.2.0 -  RELEASE  -


 With contributions from (in alphabetic order):
   Daniel Aravena         : Magnetic Suceptibility
   Michael Atanasov       : Ab Initio Ligand Field Theory (pilot matlab implementation)
   Alexander A. Auer      : GIAO ZORA, VPT2
   Ute Becker             : Parallelization
   Giovanni Bistoni       : ED, misc. LED, open-shell LED, HFLED
   Martin Brehm           : Molecular dynamics
   Dmytro Bykov           : SCF Hessian
   Vijay G. Chilkuri      : MRCI spin determinant printing, contributions to CSF-ICE
   Dipayan Datta          : RHF DLPNO-CCSD density
   Achintya Kumar Dutta   : EOM-CC, STEOM-CC
   Dmitry Ganyushin       : Spin-Orbit,Spin-Spin,Magnetic field MRCI
   Miquel Garcia          : C-PCM Hessian, Gaussian charge scheme
   Yang Guo               : DLPNO-NEVPT2, CIM, IAO-localization
   Andreas Hansen         : Spin unrestricted coupled pair/coupled cluster methods
   Benjamin Helmich-Paris : CASSCF linear response (MC-RPA)
   Lee Huntington         : MR-EOM, pCC
   Robert Izsak           : Overlap fitted RIJCOSX, COSX-SCS-MP3, EOM
   Christian Kollmar      : KDIIS, OOCD, Brueckner-CCSD(T), CCSD density
   Simone Kossmann        : Meta GGA functionals, TD-DFT gradient, OOMP2, MP2 Hessian
   Martin Krupicka        : AUTO-CI
   Lucas Lang             : DCDCAS
   Dagmar Lenk            : GEPOL surface, SMD
   Dimitrios Liakos       : Extrapolation schemes; Compound Job, initial MDCI parallelization
   Dimitrios Manganas     : Further ROCIS development; embedding schemes
   Dimitrios Pantazis     : SARC Basis sets
   Taras Petrenko         : DFT Hessian,TD-DFT gradient, ASA, ECA, R-Raman, ABS, FL, XAS/XES, NRVS
   Peter Pinski           : DLPNO-MP2, DLPNO-MP2 Gradient
   Christoph Reimann      : Effective Core Potentials
   Marius Retegan         : Local ZFS, SOC
   Christoph Riplinger    : Optimizer, TS searches, QM/MM, DLPNO-CCSD(T), (RO)-DLPNO pert. Triples
   Tobias Risthaus        : Range-separated hybrids, TD-DFT gradient, RPA, STAB
   Michael Roemelt        : Original ROCIS implementation
   Masaaki Saitow         : Open-shell DLPNO-CCSD energy and density
   Barbara Sandhoefer     : DKH picture change effects
   Avijit Sen             : IP-ROCIS
   Kantharuban Sivalingam : CASSCF convergence, NEVPT2, FIC-MRCI
   Bernardo de Souza      : ESD, SOC TD-DFT
   Georgi Stoychev        : AutoAux, RI-MP2 NMR
   Willem Van den Heuvel  : Paramagnetic NMR
   Boris Wezisla          : Elementary symmetry handling
   Frank Wennmohs         : Technical directorship


 We gratefully acknowledge several colleagues who have allowed us to
 interface, adapt or use parts of their codes:
   Stefan Grimme, W. Hujo, H. Kruse,             : VdW corrections, initial TS optimization,
                  C. Bannwarth                     DFT functionals, gCP, sTDA/sTD-DF
   Ed Valeev, F. Pavosevic, A. Kumar             : LibInt (2-el integral package), F12 methods
   Garnet Chan, S. Sharma, J. Yang, R. Olivares  : DMRG
   Ulf Ekstrom                                   : XCFun DFT Library
   Mihaly Kallay                                 : mrcc  (arbitrary order and MRCC methods)
   Andreas Klamt, Michael Diedenhofen            : otool_cosmo (COSMO solvation model)
   Jiri Pittner, Ondrej Demel                    : Mk-CCSD
   Frank Weinhold                                : gennbo (NPA and NBO analysis)
   Christopher J. Cramer and Donald G. Truhlar   : smd solvation model
   Lars Goerigk                                  : TD-DFT with DH, B97 family of functionals
   V. Asgeirsson, H. Jonsson                     : NEB implementation
   FAccTs GmbH                                   : IRC, NEB, NEB-TS, Multilevel, MM, QM/MM, CI optimization
   S Lehtola, MJT Oliveira, MAL Marques          : LibXC Library


 Your calculation uses the libint2 library for the computation of 2-el integrals
 For citations please refer to: http://libint.valeyev.net

 Your ORCA version has been built with support for libXC version: 4.2.3
 For citations please refer to: https://tddft.org/programs/libxc/

 This ORCA versions uses:
   CBLAS   interface :  Fast vector & matrix operations
   LAPACKE interface :  Fast linear algebra routines
   SCALAPACK package :  Parallel linear algebra routines


Your calculation utilizes the DFT-NL dispersion correction.
Cite in your paper:
Vydrov, O. A.; Van Voorhis, T. J. Chem. Phys. 2010, 133, 244103
Hujo, W.; Grimme, S. J. Chem. Theory Comput. 2011, 7, 3866 
   

----- Orbital basis set information -----
Your calculation utilizes the basis: def2-TZVPPD
   F. Weigend and R. Ahlrichs, Phys. Chem. Chem. Phys. 7, 3297 (2005).
   D. Rappoport and F. Furche, J. Chem. Phys. 133 134105 (2010).

----- AuxJK basis set information -----
Your calculation utilizes the auxiliary basis: def2/JK
   H-Ba, Hf-Rn: F. Weigend, J. Comput. Chem. 29, 167 (2008).

cite the ECPs for Ag [Def2-ECP] as follows:
Ce-Yb(ecp-28): M. Dolg, H. Stoll, H.Preuss, J. Chem. Phys., 1989, 90, 1730-1734.
Y-Cd(ecp-28), Hf-Hg(ecp-46): D. Andrae,U. Haeussermann, M. Dolg, H. Stoll, H. Preuss, Theor. Chim. Acta, 1990, 77, 123-141.
In-Sb(ecp-28), Tl-Bi(ecp-46): B. Metz, H. Stoll, M. Dolg, J. Chem. Phys., 2000, 113, 2563-2569.
Te-Xe(ecp-28), Po-Rn(ecp-46): K. A. Peterson, D. Figgen, E. Goll, H. Stoll, M. Dolg, J. Chem. Phys., 2003, 119, 11113-11123.
Rb(ecp-28), Cs(ecp-46): T. Leininger, A. Nicklass, W. Kuechle, H. Stoll, M. Dolg, A. Bergner, Chem. Phys. Lett., 1996, 255, 274-280.
Sr(ecp-28), Ba(ecp-46): M. Kaupp, P. V. Schleyer, H. Stoll and H. Preuss, J. Chem. Phys., 1991, 94, 1360-1366.
La(ecp-46): M. Dolg, H. Stoll, A. Savin, H. Preuss, Theor. Chim. Acta, 1989, 75, 173-194.
Lu(ecp-28): X. Cao, M. Dolg, J. Chem. Phys., 2001, 115, 7348-7355.

ECP parameters for Ag [Def2-ECP] have been obtained from:
TURBOMOLE (7.0.2)

================================================================================
                                        WARNINGS
                       Please study these warnings very carefully!
================================================================================


WARNING: Geometry Optimization
  ===> : Switching off AutoStart
         For restart on a previous wavefunction, please use MOREAD

INFO   : the flag for use of LIBINT has been found!

================================================================================
                                       INPUT FILE
================================================================================
NAME = Ag01N0_H.in
|  1> #
|  2> # Ag01N0_H wB97M-V/Def2-TZVPPD
|  3> #
|  4> ! wb97m-v def2-tzvppd def2/jk grid4 nofinalgrid opt xyzfile numfreq numgrad
|  5> 
|  6> *xyz 0 1
|  7> Ag       0.000000    0.000000    0.033547 
|  8> H        0.000000    0.000000   -1.576706 
|  9> *
| 10> 
| 11> %maxcore 5000
| 12> 
| 13> %pal
| 14> nprocs = 24
| 15> end
| 16> 
| 17> 
| 18>                          ****END OF INPUT****
================================================================================

                       *****************************
                       * Geometry Optimization Run *
                       *****************************

Geometry optimization settings:
Update method            Update   .... BFGS
Choice of coordinates    CoordSys .... Z-matrix Internals
Initial Hessian          InHess   .... Almoef's Model

Convergence Tolerances:
Energy Change            TolE     ....  5.0000e-06 Eh
Max. Gradient            TolMAXG  ....  3.0000e-04 Eh/bohr
RMS Gradient             TolRMSG  ....  1.0000e-04 Eh/bohr
Max. Displacement        TolMAXD  ....  4.0000e-03 bohr
RMS Displacement         TolRMSD  ....  2.0000e-03 bohr
Strict Convergence                ....  False
------------------------------------------------------------------------------
                        ORCA OPTIMIZATION COORDINATE SETUP
------------------------------------------------------------------------------

The optimization will be done in new redundant internal coordinates
Making redundant internal coordinates   ...  (new redundants) done
Evaluating the initial hessian          ...  (Almloef) done
Evaluating the coordinates              ...  done
Calculating the B-matrix                .... done
Calculating the G-matrix                .... done
Diagonalizing the G-matrix              .... done
The first mode is                       ....    0
The number of degrees of freedom        ....    1

    -----------------------------------------------------------------
                    Redundant Internal Coordinates


    -----------------------------------------------------------------
         Definition                    Initial Value    Approx d2E/dq
    -----------------------------------------------------------------
      1. B(H   1,Ag  0)                  1.6103         0.538912   
    -----------------------------------------------------------------

Number of atoms                         .... 2
Number of degrees of freedom            .... 1

         *************************************************************
         *                GEOMETRY OPTIMIZATION CYCLE   1            *
         *************************************************************
---------------------------------
CARTESIAN COORDINATES (ANGSTROEM)
---------------------------------
  Ag     0.000000    0.000000    0.033547
  H      0.000000    0.000000   -1.576706

----------------------------
CARTESIAN COORDINATES (A.U.)
----------------------------
  NO LB      ZA    FRAG     MASS         X           Y           Z
   0 Ag   19.0000*   0   107.870    0.000000    0.000000    0.063395
   1 H     1.0000    0     1.008    0.000000    0.000000   -2.979543
* core charge reduced due to ECP

--------------------------------
INTERNAL COORDINATES (ANGSTROEM)
--------------------------------
 Ag     0   0   0     0.000000000000     0.00000000     0.00000000
 H      1   0   0     1.610253000000     0.00000000     0.00000000

---------------------------
INTERNAL COORDINATES (A.U.)
---------------------------
 Ag     0   0   0     0.000000000000     0.00000000     0.00000000
 H      1   0   0     3.042937176325     0.00000000     0.00000000

---------------------
BASIS SET INFORMATION
---------------------
There are 2 groups of distinct atoms

 Group   1 Type Ag  : 7s7p6d2f1g contracted to 6s4p3d2f1g pattern {211111/4111/411/11/1}
 Group   2 Type H   : 5s3p1d contracted to 3s3p1d pattern {311/111/1}

Atom   0Ag   basis set group =>   1
Atom   1H    basis set group =>   2
----------------------------------
AUXILIARY/JK BASIS SET INFORMATION
----------------------------------
There are 2 groups of distinct atoms

 Group   1 Type Ag  : 13s12p10d9f6g3h2i contracted to 11s10p9d8f6g3h2i pattern {31111111111/3111111111/211111111/21111111/111111/111/11}
 Group   2 Type H   : 4s2p2d contracted to 2s2p2d pattern {31/11/11}

Atom   0Ag   basis set group =>   1
Atom   1H    basis set group =>   2
-------------------------
ECP PARAMETER INFORMATION
-------------------------

 Group 1, Type Ag ECP Def2-ECP (replacing 28 core electrons, lmax=3)

Atom   0Ag   ECP group =>   1



           ************************************************************
           *        Program running with 24 parallel MPI-processes    *
           *              working on a common directory               *
           ************************************************************
------------------------------------------------------------------------------
                           ORCA GTO INTEGRAL CALCULATION
------------------------------------------------------------------------------

                         BASIS SET STATISTICS AND STARTUP INFO

 # of primitive gaussian shells          ...   32
 # of primitive gaussian functions       ...  100
 # of contracted shells                  ...   23
 # of contracted basis functions         ...   73
 Highest angular momentum                ...    4
 Maximum contraction depth               ...    4
 Integral package used                   ... LIBINT
 Integral threshhold            Thresh   ...  2.500e-11
 Primitive cut-off              TCut     ...  2.500e-12


------------------------------ INTEGRAL EVALUATION ----------------------------


 * One electron integrals 

   ECP integrals                         ... done
 Pre-screening matrix                    ... done
 Shell pair data                         ... done (   0.000 sec)



           ************************************************************
           *        Program running with 24 parallel MPI-processes    *
           *              working on a common directory               *
           ************************************************************
-------------------------------------------------------------------------------
                                 ORCA SCF
-------------------------------------------------------------------------------

------------
SCF SETTINGS
------------
Hamiltonian:
 Density Functional     Method          .... DFT(GTOs)
 Exchange Functional    Exchange        .... WB97M-V
 Correlation Functional Correlation     .... WB97M-V
 Gradients option       PostSCFGGA      .... off
 Hybrid DFT is turned on
   Fraction HF Exchange ScalHFX         ....  0.150000
   Scaling of DF-GGA-X  ScalDFX         ....  0.000000
   Scaling of DF-GGA-C  ScalDFC         ....  1.000000
   Scaling of DF-LDA-C  ScalLDAC        ....  1.000000
   Perturbative correction              ....  0.000000
   Density functional embedding theory  .... OFF
 Long-range corrected/Screened/Range-Separated Hybrid DFT is turned on
   Amount of maximum screened exact exchange              ....  0.850000
   Range separation parameter mu (erf(mu*r12)/r12)        ....  0.300000
   NL short-range parameter             ....  6.000000
   NL long-range parameter              ....  0.010000


General Settings:
 Integral files         IntName         .... Ag01N0_H
 Hartree-Fock type      HFTyp           .... RHF
 Total Charge           Charge          ....    0
 Multiplicity           Mult            ....    1
 Number of Electrons    NEL             ....   20
 Basis Dimension        Dim             ....   73
 Nuclear Repulsion      ENuc            ....      6.2439672261 Eh

Convergence Acceleration:
 DIIS                   CNVDIIS         .... on
   Start iteration      DIISMaxIt       ....    12
   Startup error        DIISStart       ....  0.200000
   # of expansion vecs  DIISMaxEq       ....     5
   Bias factor          DIISBfac        ....   1.050
   Max. coefficient     DIISMaxC        ....  10.000
 Newton-Raphson         CNVNR           .... off
 SOSCF                  CNVSOSCF        .... off
 Level Shifting         CNVShift        .... on
   Level shift para.    LevelShift      ....    0.2500
   Turn off err/grad.   ShiftErr        ....    0.0010
 Zerner damping         CNVZerner       .... off
 Static damping         CNVDamp         .... on
   Fraction old density DampFac         ....    0.7000
   Max. Damping (<1)    DampMax         ....    0.9800
   Min. Damping (>=0)   DampMin         ....    0.0000
   Turn off err/grad.   DampErr         ....    0.1000
 Fernandez-Rico         CNVRico         .... off

SCF Procedure:
 Maximum # iterations   MaxIter         ....   125
 SCF integral mode      SCFMode         .... Direct
   Integral package                     .... LIBINT
 Reset frequency        DirectResetFreq ....    20
 Integral Threshold     Thresh          ....  2.500e-11 Eh
 Primitive CutOff       TCut            ....  2.500e-12 Eh

Convergence Tolerance:
 Convergence Check Mode ConvCheckMode   .... Total+1el-Energy
 Convergence forced     ConvForced      .... 0
 Energy Change          TolE            ....  1.000e-08 Eh
 1-El. energy change                    ....  1.000e-05 Eh
 DIIS Error             TolErr          ....  5.000e-07


Diagonalization of the overlap matrix:
Smallest eigenvalue                        ... 3.316e-03
Time for diagonalization                   ...    0.003 sec
Threshold for overlap eigenvalues          ... 1.000e-08
Number of eigenvalues below threshold      ... 0
Time for construction of square roots      ...    0.001 sec
Total time needed                          ...    0.004 sec

-------------------
DFT GRID GENERATION
-------------------

General Integration Accuracy     IntAcc      ...  4.670
Radial Grid Type                 RadialGrid  ... Gauss-Chebyshev
Angular Grid (max. acc.)         AngularGrid ... Lebedev-302
Angular grid pruning method      GridPruning ... 3 (G Style)
Weight generation scheme         WeightScheme... Becke
Basis function cutoff            BFCut       ...    1.0000e-11
Integration weight cutoff        WCut        ...    1.0000e-14
Grids for H and He will be reduced by one unit

# of grid points (after initial pruning)     ...  14052 (   0.0 sec)
# of grid points (after weights+screening)   ...  13996 (   0.0 sec)
nearest neighbour list constructed           ...    0.0 sec
Grid point re-assignment to atoms done       ...    0.0 sec
Grid point division into batches done        ...    0.1 sec
Reduced shell lists constructed in    0.1 sec

Total number of grid points                  ...    13996
Total number of batches                      ...      220
Average number of points per batch           ...       63
Average number of grid points per atom       ...     6998
Average number of shells per batch           ...     2.27 ( 9.88%)
Average number of basis functions per batch  ...     4.82 ( 6.60%)
Average number of large shells per batch     ...     2.09 (92.00%)
Average number of large basis fcns per batch ...     4.09 (84.91%)
Maximum spatial batch extension              ...  40.43, 36.77, 24.60 au
Average spatial batch extension              ...   1.31,  1.23,  0.88 au

Time for grid setup =    0.126 sec

------------------------------
INITIAL GUESS: MODEL POTENTIAL
------------------------------
Loading Hartree-Fock densities                     ... done
  calling /sw/apps/orca/orca_4_2_0_linux_x86-64_openmpi314/orca Ag01N0_H_atom47.inp > Ag01N0_H_atom47.out in order to generate an atomic fitting density for atom 0 (Ag with ECP) on-the-fly... 
    atom 0 (Ag), assumed electronic state with S=2: 1s2 2s2 2p6 3s2 3p6 4s2 3d10 4p6 5s2 4d9           ... done
Calculating cut-offs                               ... done
Setting up the integral package                    ... done
Initializing the effective Hamiltonian             ... done
Starting the Coulomb interaction                   ... done (   0.0 sec)
Reading the grid                                   ... done
Mapping shells                                     ... done
Starting the XC term evaluation                    ... done (   0.0 sec)
  promolecular density results
     # of electrons  =     48.000708508
     EX              =   -143.701119984
     EC              =     -2.507503173
     EX+EC           =   -146.208623157
Transforming the Hamiltonian                       ... done (   0.0 sec)
Diagonalizing the Hamiltonian                      ... done (   0.0 sec)
Back transforming the eigenvectors                 ... done (   0.0 sec)
Now organizing SCF variables                       ... done
                      ------------------
                      INITIAL GUESS DONE (   1.3 sec)
                      ------------------
--------------
SCF ITERATIONS
--------------
ITER       Energy         Delta-E        Max-DP      RMS-DP      [F,P]     Damp
               ***  Starting incremental Fock matrix formation  ***
  0   -147.4631410212   0.000000000000 0.09126520  0.00291710  0.5133601 0.7000
  1   -147.5060840849  -0.042943063746 0.04631199  0.00179492  0.3408601 0.7000
  2   -147.5251183042  -0.019034219305 0.02007134  0.00091603  0.2276356 0.7000
                               ***Turning on DIIS***
  3   -147.5366249831  -0.011506678888 0.01204367  0.00051031  0.1555563 0.7000
  4   -147.5445785797  -0.007953596610 0.00979402  0.00033846  0.1081184 0.7000
  5   -147.5501472619  -0.005568682130 0.03356681  0.00091983  0.0765769 0.0000
  6   -147.5632371016  -0.013089839755 0.00770640  0.00014942  0.0012007 0.0000
  7   -147.5632464627  -0.000009361100 0.00367611  0.00007231  0.0008073 0.0000
  8   -147.5632504694  -0.000004006661 0.00244357  0.00004957  0.0003846 0.0000
  9   -147.5632515332  -0.000001063820 0.00017328  0.00000755  0.0001548 0.0000
 10   -147.5632516484  -0.000000115221 0.00020855  0.00000473  0.0000720 0.0000
 11   -147.5632516800  -0.000000031590 0.00023473  0.00000445  0.0000278 0.0000
 12   -147.5632516875  -0.000000007506 0.00007633  0.00000142  0.0000080 0.0000
 13   -147.5632516882  -0.000000000718 0.00000659  0.00000021  0.0000029 0.0000
                            ***DIIS convergence achieved***

               *****************************************************
               *                     SUCCESS                       *
               *           SCF CONVERGED AFTER  14 CYCLES          *
               *****************************************************


Setting up the DFT-NL grid :

General Integration Accuracy     IntAcc      ...  4.340
Radial Grid Type                 RadialGrid  ... Gauss-Chebyshev
Angular Grid (max. acc.)         AngularGrid ... Lebedev-110
Angular grid pruning method      GridPruning ... 3 (G Style)
Weight generation scheme         WeightScheme... Becke
Basis function cutoff            BFCut       ...    1.0000e-11
Integration weight cutoff        WCut        ...    1.0000e-14
Grids for H and He will be reduced by one unit

# of grid points (after initial pruning)     ...   4052 (   0.0 sec)
# of grid points (after weights+screening)   ...   4023 (   0.0 sec)
nearest neighbour list constructed           ...    0.0 sec
Grid point re-assignment to atoms done       ...    0.0 sec
Grid point division into batches done        ...    0.0 sec
Reduced shell lists constructed in    0.0 sec

Total number of grid points                  ...     4023
Total number of batches                      ...       64
Average number of points per batch           ...       62
Average number of grid points per atom       ...     2012
Average number of shells per batch           ...     5.75 (25.00%)
Average number of basis functions per batch  ...    13.75 (18.84%)
Average number of large shells per batch     ...     5.25 (91.30%)
Average number of large basis fcns per batch ...    12.75 (92.73%)
Maximum spatial batch extension              ...  26.33, 48.08, 25.46 au
Average spatial batch extension              ...   1.14,  1.92,  1.15 au

Final grid set up in    0.0 sec

-------------------------------------------------------------------------------
                         DFT-NL dispersion correction                          
-------------------------------------------------------------------------------

SC Energy -147.563251688 
NL    Energy 0.078770454 
SC+NL Energy -147.484481235 
NL done in    0.0 sec
-------------------------------------------------------------------------------

----------------
TOTAL SCF ENERGY
----------------

Total Energy       :         -147.48448123 Eh           -4013.25676 eV

Components:
Nuclear Repulsion  :            6.24396723 Eh             169.90699 eV
Electronic Energy  :         -153.72844846 Eh           -4183.16375 eV
One Electron Energy:         -273.99833430 Eh           -7455.87373 eV
Two Electron Energy:          120.26988584 Eh            3272.70998 eV

Virial components:
Potential Energy   :         -204.34715637 Eh           -5560.56882 eV
Kinetic Energy     :           56.86267514 Eh            1547.31205 eV
Virial Ratio       :            3.59369579


DFT components:
N(Alpha)           :        9.999999081410 electrons
N(Beta)            :        9.999999081410 electrons
N(Total)           :       19.999998162820 electrons
E(X)               :       -9.074215509907 Eh       
E(C)               :       -0.710616480582 Eh       
NL Energy, E(C,NL) :        0.078770453576 Eh       
E(XC)              :       -9.706061536913 Eh       
DFET-embed. en.    :        0.000000000000 Eh       

---------------
SCF CONVERGENCE
---------------

  Last Energy change         ...   -3.6380e-11  Tolerance :   1.0000e-08
  Last MAX-Density change    ...    3.5732e-06  Tolerance :   1.0000e-07
  Last RMS-Density change    ...    8.9627e-08  Tolerance :   5.0000e-09
  Last DIIS Error            ...    7.3264e-07  Tolerance :   5.0000e-07

             **** THE GBW FILE WAS UPDATED (Ag01N0_H.gbw) ****
             **** DENSITY FILE WAS UPDATED (Ag01N0_H.scfp) ****
             **** ENERGY FILE WAS UPDATED (Ag01N0_H.en.tmp) ****
             **** THE GBW FILE WAS UPDATED (Ag01N0_H.gbw) ****
             **** DENSITY FILE WAS UPDATED (Ag01N0_H.scfp) ****
----------------
ORBITAL ENERGIES
----------------

  NO   OCC          E(Eh)            E(eV) 
   0   2.0000      -3.881612      -105.6240 
   1   2.0000      -2.472532       -67.2810 
   2   2.0000      -2.465134       -67.0797 
   3   2.0000      -2.465134       -67.0797 
   4   2.0000      -0.490611       -13.3502 
   5   2.0000      -0.450224       -12.2512 
   6   2.0000      -0.450224       -12.2512 
   7   2.0000      -0.442528       -12.0418 
   8   2.0000      -0.442528       -12.0418 
   9   2.0000      -0.330984        -9.0065 
  10   0.0000      -0.023230        -0.6321 
  11   0.0000       0.035398         0.9632 
  12   0.0000       0.035398         0.9632 
  13   0.0000       0.102410         2.7867 
  14   0.0000       0.139383         3.7928 
  15   0.0000       0.222208         6.0466 
  16   0.0000       0.222208         6.0466 
  17   0.0000       0.232231         6.3193 
  18   0.0000       0.282154         7.6778 
  19   0.0000       0.282154         7.6778 
  20   0.0000       0.449817        12.2401 
  21   0.0000       0.489649        13.3240 
  22   0.0000       0.489650        13.3240 
  23   0.0000       0.510140        13.8816 
  24   0.0000       0.587788        15.9945 
  25   0.0000       0.587788        15.9945 
  26   0.0000       0.661021        17.9873 
  27   0.0000       0.947524        25.7834 
  28   0.0000       0.947524        25.7834 
  29   0.0000       1.146249        31.1910 
  30   0.0000       1.693276        46.0764 
  31   0.0000       1.693279        46.0765 
  32   0.0000       1.704692        46.3870 
  33   0.0000       1.704692        46.3870 
  34   0.0000       1.704732        46.3881 
  35   0.0000       1.704732        46.3881 
  36   0.0000       1.768569        48.1252 
  37   0.0000       1.768569        48.1252 
  38   0.0000       1.772559        48.2338 
  39   0.0000       1.952644        53.1342 
  40   0.0000       2.131575        58.0031 
  41   0.0000       2.148237        58.4565 
  42   0.0000       2.148243        58.4567 
  43   0.0000       2.205976        60.0277 
  44   0.0000       2.205976        60.0277 
  45   0.0000       2.325753        63.2869 
  46   0.0000       2.685611        73.0792 
  47   0.0000       3.284569        89.3777 
  48   0.0000       3.284694        89.3811 
  49   0.0000       3.513455        95.6060 
  50   0.0000       3.513455        95.6060 
  51   0.0000       3.900535       106.1389 
  52   0.0000       3.900535       106.1389 
  53   0.0000       3.968831       107.9974 
  54   0.0000       4.588287       124.8536 
  55   0.0000       4.974179       135.3543 
  56   0.0000       4.974179       135.3543 
  57   0.0000       4.984817       135.6438 
  58   0.0000       4.984824       135.6440 
  59   0.0000       5.152540       140.2077 
  60   0.0000       5.152540       140.2077 
  61   0.0000       5.350618       145.5977 
  62   0.0000       5.699527       155.0920 
  63   0.0000       5.699527       155.0920 
  64   0.0000       5.701711       155.1515 
  65   0.0000       5.701716       155.1516 
  66   0.0000       5.703276       155.1940 
  67   0.0000       5.703297       155.1946 
  68   0.0000       5.829378       158.6254 
  69   0.0000       5.829378       158.6254 
  70   0.0000       6.259644       170.3336 
  71   0.0000      33.714105       917.4074 
  72   0.0000     110.886697      3017.3804 

                    ********************************
                    * MULLIKEN POPULATION ANALYSIS *
                    ********************************

-----------------------
MULLIKEN ATOMIC CHARGES
-----------------------
   0 Ag:    0.002483
   1 H :   -0.002483
Sum of atomic charges:   -0.0000000

--------------------------------
MULLIKEN REDUCED ORBITAL CHARGES
--------------------------------
  0 Ags       :     2.972982  s :     2.972982
      pz      :     2.133664  p :     6.134593
      px      :     2.000465
      py      :     2.000465
      dz2     :     1.901539  d :     9.888040
      dxz     :     1.993404
      dyz     :     1.993404
      dx2y2   :     1.999846
      dxy     :     1.999846
      f0      :     0.001430  f :     0.001858
      f+1     :     0.000097
      f-1     :     0.000097
      f+2     :     0.000117
      f-2     :     0.000117
      f+3     :     0.000000
      f-3     :     0.000000
      g0      :     0.000035  g :     0.000043
      g+1     :     0.000003
      g-1     :     0.000003
      g+2     :     0.000001
      g-2     :     0.000001
      g+3     :     0.000000
      g-3     :     0.000000
      g+4     :     0.000000
      g-4     :     0.000000
  1 H s       :     0.995968  s :     0.995968
      pz      :    -0.006829  p :     0.003878
      px      :     0.005353
      py      :     0.005353
      dz2     :     0.001210  d :     0.002637
      dxz     :     0.000678
      dyz     :     0.000678
      dx2y2   :     0.000036
      dxy     :     0.000036


                     *******************************
                     * LOEWDIN POPULATION ANALYSIS *
                     *******************************

----------------------
LOEWDIN ATOMIC CHARGES
----------------------
   0 Ag:    0.310217
   1 H :   -0.310217

-------------------------------
LOEWDIN REDUCED ORBITAL CHARGES
-------------------------------
  0 Ags       :     2.744459  s :     2.744459
      pz      :     2.107616  p :     6.105506
      px      :     1.998945
      py      :     1.998945
      dz2     :     1.895752  d :     9.836425
      dxz     :     1.970696
      dyz     :     1.970696
      dx2y2   :     1.999640
      dxy     :     1.999640
      f0      :     0.002573  f :     0.003347
      f+1     :     0.000267
      f-1     :     0.000267
      f+2     :     0.000120
      f-2     :     0.000120
      f+3     :     0.000000
      f-3     :     0.000000
      g0      :     0.000045  g :     0.000046
      g+1     :     0.000000
      g-1     :     0.000000
      g+2     :     0.000001
      g-2     :     0.000001
      g+3     :     0.000000
      g-3     :     0.000000
      g+4     :     0.000000
      g-4     :     0.000000
  1 H s       :     1.131058  s :     1.131058
      pz      :     0.107990  p :     0.159193
      px      :     0.025601
      py      :     0.025601
      dz2     :     0.010508  d :     0.019967
      dxz     :     0.004490
      dyz     :     0.004490
      dx2y2   :     0.000239
      dxy     :     0.000239


                      *****************************
                      * MAYER POPULATION ANALYSIS *
                      *****************************

  NA   - Mulliken gross atomic population
  ZA   - Total nuclear charge
  QA   - Mulliken gross atomic charge
  VA   - Mayer's total valence
  BVA  - Mayer's bonded valence
  FA   - Mayer's free valence

  ATOM       NA         ZA         QA         VA         BVA        FA
  0 Ag    18.9975    19.0000     0.0025     1.0557     1.0557    -0.0000
  1 H      1.0025     1.0000    -0.0025     1.0557     1.0557    -0.0000

  Mayer bond orders larger than 0.100000
B(  0-Ag,  1-H ) :   1.0557 

-------
TIMINGS
-------

Total SCF time: 0 days 0 hours 0 min 4 sec 

Total time                  ....       4.207 sec
Sum of individual times     ....       4.014 sec  ( 95.4%)

Fock matrix formation       ....       2.716 sec  ( 64.6%)
  XC integration            ....       0.281 sec  ( 10.4% of F)
    Basis function eval.    ....       0.016 sec  (  5.8% of XC)
    Density eval.           ....       0.018 sec  (  6.6% of XC)
    XC-Functional eval.     ....       0.015 sec  (  5.4% of XC)
    XC-Potential eval.      ....       0.031 sec  ( 10.9% of XC)
Diagonalization             ....       0.013 sec  (  0.3%)
Density matrix formation    ....       0.003 sec  (  0.1%)
Population analysis         ....       0.002 sec  (  0.1%)
Initial guess               ....       1.128 sec  ( 26.8%)
Orbital Transformation      ....       0.000 sec  (  0.0%)
Orbital Orthonormalization  ....       0.000 sec  (  0.0%)
DIIS solution               ....       0.009 sec  (  0.2%)
Grid generation             ....       0.143 sec  (  3.4%)

-------------------------   --------------------
FINAL SINGLE POINT ENERGY      -147.484481234708
-------------------------   --------------------


----------------------------------------------------------------------------
                           ORCA NUMERICAL GRADIENT
                              (24-process run)
----------------------------------------------------------------------------

I state                        ... 1
J state                        ... 0
Number of atoms                ... 2
Derivative's order of accuracy ... 2
Central differences            ... used
Number of displacements        ... 12
Numerical increment            ... 5.000e-03 bohr
Translation invariance         ... used

The output will be reduced. Please look at the following files:
SCF program output             ... >Ag01N0_H.lastscf
Integral program output        ... >Ag01N0_H.lastint
Gradient program output        ... >Ag01N0_H.lastgrad


     Note:   There are more processes than displacements to do
     ===>:   Reducing number of processes to   3

             <<<Displacing   2/coordinate 3 (+)>>>
             <<<Displacing   2/coordinate 2 (+)>>>
             <<<Displacing   2/coordinate 1 (+)>>>
             <<<Displacing   2/coordinate 1 (-)>>>
             <<<Displacing   2/coordinate 2 (-)>>>
             <<<Displacing   2/coordinate 3 (-)>>>

------------------------------
CARTESIAN GRADIENT (NUMERICAL)
-------------------------------
   1   Ag  :    0.000000671    0.000000582   -0.003510593
   2   H   :   -0.000000671   -0.000000582    0.003510593

Norm of the cartesian gradient     ...    0.004964729
RMS gradient                       ...    0.002026842
MAX gradient                       ...    0.003510593

-------
TIMINGS
-------

Total numerical gradient time      ...       14.324 sec

------------------------------------------------------------------------------
                         ORCA GEOMETRY RELAXATION STEP
------------------------------------------------------------------------------

Reading the OPT-File                    .... done
Getting information on internals        .... done
Copying old internal coords+grads       .... done
Making the new internal coordinates     .... (new redundants).... done
Validating the new internal coordinates .... (new redundants).... done
Calculating the B-matrix                .... done
Calculating the G,G- and P matrices     .... done
Transforming gradient to internals      .... done
Projecting the internal gradient        .... done
Number of atoms                         ....   2
Number of internal coordinates          ....   1
Current Energy                          ....  -147.484481235 Eh
Current gradient norm                   ....     0.004964729 Eh/bohr
Maximum allowed component of the step   ....  0.300
Current trust radius                    ....  0.300
Evaluating the initial hessian          ....  (Almloef) done
Projecting the Hessian                  .... done
Forming the augmented Hessian           .... done
Diagonalizing the augmented Hessian     .... done
Last element of RFO vector              ....  0.999978785
Lowest eigenvalues of augmented Hessian:
 -0.000022868
Length of the computed step             ....  0.006513953
The final length of the internal step   ....  0.006513953
Converting the step to cartesian space:
 Initial RMS(Int)=    0.0065139532
Transforming coordinates:
 Iter   0:  RMS(Cart)=    0.0018804163 RMS(Int)=    0.0065139532
 Iter   1:  RMS(Cart)=    0.0000000000 RMS(Int)=    0.0000000000
done
Storing new coordinates                 .... done

                                .--------------------.
          ----------------------|Geometry convergence|-------------------------
          Item                value                   Tolerance       Converged
          ---------------------------------------------------------------------
          RMS gradient        0.0035105933            0.0001000000      NO
          MAX gradient        0.0035105933            0.0003000000      NO
          RMS step            0.0065139532            0.0020000000      NO
          MAX step            0.0065139532            0.0040000000      NO
          ........................................................
          Max(Bonds)      0.0034      Max(Angles)    0.00
          Max(Dihed)        0.00      Max(Improp)    0.00
          ---------------------------------------------------------------------

The optimization has not yet converged - more geometry cycles are needed


    ---------------------------------------------------------------------------
                         Redundant Internal Coordinates
                            (Angstroem and degrees)

        Definition                    Value    dE/dq     Step     New-Value
    ----------------------------------------------------------------------------
     1. B(H   1,Ag  0)                1.6103 -0.003511  0.0034    1.6137   
    ----------------------------------------------------------------------------

         *************************************************************
         *                GEOMETRY OPTIMIZATION CYCLE   2            *
         *************************************************************
---------------------------------
CARTESIAN COORDINATES (ANGSTROEM)
---------------------------------
  Ag     0.000000    0.000000    0.035271
  H      0.000000    0.000000   -1.578430

----------------------------
CARTESIAN COORDINATES (A.U.)
----------------------------
  NO LB      ZA    FRAG     MASS         X           Y           Z
   0 Ag   19.0000*   0   107.870    0.000000    0.000000    0.066652
   1 H     1.0000    0     1.008    0.000000    0.000000   -2.982800
* core charge reduced due to ECP

--------------------------------
INTERNAL COORDINATES (ANGSTROEM)
--------------------------------
 Ag     0   0   0     0.000000000000     0.00000000     0.00000000
 H      1   0   0     1.613700035544     0.00000000     0.00000000

---------------------------
INTERNAL COORDINATES (A.U.)
---------------------------
 Ag     0   0   0     0.000000000000     0.00000000     0.00000000
 H      1   0   0     3.049451129478     0.00000000     0.00000000



           ************************************************************
           *        Program running with 24 parallel MPI-processes    *
           *              working on a common directory               *
           ************************************************************


           ************************************************************
           *        Program running with 24 parallel MPI-processes    *
           *              working on a common directory               *
           ************************************************************

Diagonalization of the overlap matrix:
Smallest eigenvalue                        ... 3.361e-03
Time for diagonalization                   ...    0.002 sec
Threshold for overlap eigenvalues          ... 1.000e-08
Number of eigenvalues below threshold      ... 0
Time for construction of square roots      ...    0.001 sec
Total time needed                          ...    0.003 sec

-------------------
DFT GRID GENERATION
-------------------

General Integration Accuracy     IntAcc      ...  4.670
Radial Grid Type                 RadialGrid  ... Gauss-Chebyshev
Angular Grid (max. acc.)         AngularGrid ... Lebedev-302
Angular grid pruning method      GridPruning ... 3 (G Style)
Weight generation scheme         WeightScheme... Becke
Basis function cutoff            BFCut       ...    1.0000e-11
Integration weight cutoff        WCut        ...    1.0000e-14
Grids for H and He will be reduced by one unit

# of grid points (after initial pruning)     ...  14052 (   0.0 sec)
# of grid points (after weights+screening)   ...  13996 (   0.0 sec)
nearest neighbour list constructed           ...    0.0 sec
Grid point re-assignment to atoms done       ...    0.0 sec
Grid point division into batches done        ...    0.1 sec
Reduced shell lists constructed in    0.1 sec

Total number of grid points                  ...    13996
Total number of batches                      ...      220
Average number of points per batch           ...       63
Average number of grid points per atom       ...     6998
Average number of shells per batch           ...     2.27 ( 9.88%)
Average number of basis functions per batch  ...     4.82 ( 6.60%)
Average number of large shells per batch     ...     2.09 (92.00%)
Average number of large basis fcns per batch ...     4.09 (84.91%)
Maximum spatial batch extension              ...  40.43, 36.77, 24.61 au
Average spatial batch extension              ...   1.32,  1.23,  0.90 au

Time for grid setup =    0.129 sec

--------------
SCF ITERATIONS
--------------
ITER       Energy         Delta-E        Max-DP      RMS-DP      [F,P]     Damp
               ***  Starting incremental Fock matrix formation  ***
  0   -147.5632734123   0.000000000000 0.00021687  0.00000532  0.0048828 0.7000
  1   -147.5632736938  -0.000000281544 0.00025365  0.00000565  0.0034305 0.7000
                               ***Turning on DIIS***
  2   -147.5632739117  -0.000000217867 0.00079273  0.00001667  0.0024068 0.0000
  3   -147.5632745071  -0.000000595471 0.00049324  0.00000947  0.0000935 0.0000
  4   -147.5632745798  -0.000000072614 0.00011960  0.00000287  0.0000529 0.0000
  5   -147.5632745976  -0.000000017847 0.00018235  0.00000400  0.0000290 0.0000
  6   -147.5632746094  -0.000000011843 0.00004071  0.00000111  0.0000129 0.0000
  7   -147.5632746107  -0.000000001253 0.00001110  0.00000037  0.0000053 0.0000
  8   -147.5632746108  -0.000000000130 0.00000375  0.00000012  0.0000029 0.0000
                 **** Energy Check signals convergence ****

               *****************************************************
               *                     SUCCESS                       *
               *           SCF CONVERGED AFTER   9 CYCLES          *
               *****************************************************


Setting up the DFT-NL grid :

General Integration Accuracy     IntAcc      ...  4.340
Radial Grid Type                 RadialGrid  ... Gauss-Chebyshev
Angular Grid (max. acc.)         AngularGrid ... Lebedev-110
Angular grid pruning method      GridPruning ... 3 (G Style)
Weight generation scheme         WeightScheme... Becke
Basis function cutoff            BFCut       ...    1.0000e-11
Integration weight cutoff        WCut        ...    1.0000e-14
Grids for H and He will be reduced by one unit

# of grid points (after initial pruning)     ...   4052 (   0.0 sec)
# of grid points (after weights+screening)   ...   4023 (   0.0 sec)
nearest neighbour list constructed           ...    0.0 sec
Grid point re-assignment to atoms done       ...    0.0 sec
Grid point division into batches done        ...    0.0 sec
Reduced shell lists constructed in    0.0 sec

Total number of grid points                  ...     4023
Total number of batches                      ...       64
Average number of points per batch           ...       62
Average number of grid points per atom       ...     2012
Average number of shells per batch           ...     5.75 (25.00%)
Average number of basis functions per batch  ...    13.75 (18.84%)
Average number of large shells per batch     ...     5.25 (91.30%)
Average number of large basis fcns per batch ...    12.75 (92.73%)
Maximum spatial batch extension              ...  26.33, 48.08, 25.46 au
Average spatial batch extension              ...   1.14,  1.92,  1.15 au

Final grid set up in    0.0 sec

-------------------------------------------------------------------------------
                         DFT-NL dispersion correction                          
-------------------------------------------------------------------------------

SC Energy -147.563274611 
NL    Energy 0.078773192 
SC+NL Energy -147.484501419 
NL done in    0.0 sec
-------------------------------------------------------------------------------
Total Energy       :         -147.48450142 Eh           -4013.25731 eV
  Last Energy change         ...   -2.5977e-11  Tolerance :   1.0000e-08
  Last MAX-Density change    ...    1.0414e-06  Tolerance :   1.0000e-07
             **** THE GBW FILE WAS UPDATED (Ag01N0_H.gbw) ****
             **** DENSITY FILE WAS UPDATED (Ag01N0_H.scfp) ****
             **** ENERGY FILE WAS UPDATED (Ag01N0_H.en.tmp) ****
             **** THE GBW FILE WAS UPDATED (Ag01N0_H.gbw) ****
             **** DENSITY FILE WAS UPDATED (Ag01N0_H.scfp) ****
Total SCF time: 0 days 0 hours 0 min 2 sec 

-------------------------   --------------------
FINAL SINGLE POINT ENERGY      -147.484501418787
-------------------------   --------------------


----------------------------------------------------------------------------
                           ORCA NUMERICAL GRADIENT
                              (24-process run)
----------------------------------------------------------------------------

I state                        ... 1
J state                        ... 0
Number of atoms                ... 2
Derivative's order of accuracy ... 2
Central differences            ... used
Number of displacements        ... 12
Numerical increment            ... 5.000e-03 bohr
Translation invariance         ... used

The output will be reduced. Please look at the following files:
SCF program output             ... >Ag01N0_H.lastscf
Integral program output        ... >Ag01N0_H.lastint
Gradient program output        ... >Ag01N0_H.lastgrad


     Note:   There are more processes than displacements to do
     ===>:   Reducing number of processes to   3

             <<<Displacing   2/coordinate 3 (+)>>>
             <<<Displacing   2/coordinate 2 (+)>>>
             <<<Displacing   2/coordinate 1 (+)>>>
             <<<Displacing   2/coordinate 2 (-)>>>
             <<<Displacing   2/coordinate 1 (-)>>>
             <<<Displacing   2/coordinate 3 (-)>>>

------------------------------
CARTESIAN GRADIENT (NUMERICAL)
-------------------------------
   1   Ag  :   -0.000000308   -0.000000003   -0.002691633
   2   H   :    0.000000308    0.000000003    0.002691633

Norm of the cartesian gradient     ...    0.003806544
RMS gradient                       ...    0.001554015
MAX gradient                       ...    0.002691633

-------
TIMINGS
-------

Total numerical gradient time      ...       14.238 sec

------------------------------------------------------------------------------
                         ORCA GEOMETRY RELAXATION STEP
------------------------------------------------------------------------------

Reading the OPT-File                    .... done
Getting information on internals        .... done
Copying old internal coords+grads       .... done
Making the new internal coordinates     .... (new redundants).... done
Validating the new internal coordinates .... (new redundants).... done
Calculating the B-matrix                .... done
Calculating the G,G- and P matrices     .... done
Transforming gradient to internals      .... done
Projecting the internal gradient        .... done
Number of atoms                         ....   2
Number of internal coordinates          ....   1
Current Energy                          ....  -147.484501419 Eh
Current gradient norm                   ....     0.003806544 Eh/bohr
Maximum allowed component of the step   ....  0.300
Current trust radius                    ....  0.300
Updating the Hessian (BFGS)             .... done
Forming the augmented Hessian           .... done
Diagonalizing the augmented Hessian     .... done
Last element of RFO vector              ....  0.999771115
Lowest eigenvalues of augmented Hessian:
 -0.000057599
Length of the computed step             ....  0.021399248
The final length of the internal step   ....  0.021399248
Converting the step to cartesian space:
 Initial RMS(Int)=    0.0213992481
Transforming coordinates:
 Iter   0:  RMS(Cart)=    0.0061774308 RMS(Int)=    0.0213992481
 Iter   1:  RMS(Cart)=    0.0000000000 RMS(Int)=    0.0000000000
done
Storing new coordinates                 .... done

                                .--------------------.
          ----------------------|Geometry convergence|-------------------------
          Item                value                   Tolerance       Converged
          ---------------------------------------------------------------------
          Energy change      -0.0000201841            0.0000050000      NO
          RMS gradient        0.0026916327            0.0001000000      NO
          MAX gradient        0.0026916327            0.0003000000      NO
          RMS step            0.0213992481            0.0020000000      NO
          MAX step            0.0213992481            0.0040000000      NO
          ........................................................
          Max(Bonds)      0.0113      Max(Angles)    0.00
          Max(Dihed)        0.00      Max(Improp)    0.00
          ---------------------------------------------------------------------

The optimization has not yet converged - more geometry cycles are needed


    ---------------------------------------------------------------------------
                         Redundant Internal Coordinates
                            (Angstroem and degrees)

        Definition                    Value    dE/dq     Step     New-Value
    ----------------------------------------------------------------------------
     1. B(H   1,Ag  0)                1.6137 -0.002692  0.0113    1.6250   
    ----------------------------------------------------------------------------

         *************************************************************
         *                GEOMETRY OPTIMIZATION CYCLE   3            *
         *************************************************************


           ************************************************************
           *        Program running with 24 parallel MPI-processes    *
           *              working on a common directory               *
           ************************************************************


           ************************************************************
           *        Program running with 24 parallel MPI-processes    *
           *              working on a common directory               *
           ************************************************************

Diagonalization of the overlap matrix:
Smallest eigenvalue                        ... 3.510e-03
Time for diagonalization                   ...    0.002 sec
Threshold for overlap eigenvalues          ... 1.000e-08
Number of eigenvalues below threshold      ... 0
Time for construction of square roots      ...    0.001 sec
Total time needed                          ...    0.003 sec

-------------------
DFT GRID GENERATION
-------------------

General Integration Accuracy     IntAcc      ...  4.670
Radial Grid Type                 RadialGrid  ... Gauss-Chebyshev
Angular Grid (max. acc.)         AngularGrid ... Lebedev-302
Angular grid pruning method      GridPruning ... 3 (G Style)
Weight generation scheme         WeightScheme... Becke
Basis function cutoff            BFCut       ...    1.0000e-11
Integration weight cutoff        WCut        ...    1.0000e-14
Grids for H and He will be reduced by one unit

# of grid points (after initial pruning)     ...  14052 (   0.0 sec)
# of grid points (after weights+screening)   ...  13996 (   0.0 sec)
nearest neighbour list constructed           ...    0.0 sec
Grid point re-assignment to atoms done       ...    0.0 sec
Grid point division into batches done        ...    0.1 sec
Reduced shell lists constructed in    0.1 sec

Total number of grid points                  ...    13996
Total number of batches                      ...      220
Average number of points per batch           ...       63
Average number of grid points per atom       ...     6998
Average number of shells per batch           ...     2.27 ( 9.88%)
Average number of basis functions per batch  ...     4.82 ( 6.60%)
Average number of large shells per batch     ...     2.09 (92.00%)
Average number of large basis fcns per batch ...     4.09 (84.91%)
Maximum spatial batch extension              ...  40.43, 36.77, 24.63 au
Average spatial batch extension              ...   1.32,  1.23,  0.90 au

Time for grid setup =    0.132 sec

--------------
SCF ITERATIONS
--------------
ITER       Energy         Delta-E        Max-DP      RMS-DP      [F,P]     Damp
               ***  Starting incremental Fock matrix formation  ***
  0   -147.5633004038   0.000000000000 0.00071917  0.00001749  0.0157716 0.7000
  1   -147.5633033667  -0.000002962923 0.00083674  0.00001858  0.0110808 0.7000
                               ***Turning on DIIS***
  2   -147.5633056633  -0.000002296521 0.00260734  0.00005474  0.0077743 0.0000
  3   -147.5633119470  -0.000006283719 0.00160369  0.00003081  0.0003043 0.0000
  4   -147.5633127166  -0.000000769612 0.00039057  0.00000940  0.0001694 0.0000
  5   -147.5633129061  -0.000000189478 0.00058660  0.00001288  0.0000940 0.0000
  6   -147.5633130301  -0.000000124030 0.00012921  0.00000357  0.0000418 0.0000
  7   -147.5633130433  -0.000000013202 0.00003494  0.00000118  0.0000172 0.0000
  8   -147.5633130447  -0.000000001396 0.00001239  0.00000041  0.0000095 0.0000
  9   -147.5633130450  -0.000000000284 0.00000320  0.00000012  0.0000020 0.0000
                 **** Energy Check signals convergence ****

               *****************************************************
               *                     SUCCESS                       *
               *           SCF CONVERGED AFTER  10 CYCLES          *
               *****************************************************


Setting up the DFT-NL grid :

General Integration Accuracy     IntAcc      ...  4.340
Radial Grid Type                 RadialGrid  ... Gauss-Chebyshev
Angular Grid (max. acc.)         AngularGrid ... Lebedev-110
Angular grid pruning method      GridPruning ... 3 (G Style)
Weight generation scheme         WeightScheme... Becke
Basis function cutoff            BFCut       ...    1.0000e-11
Integration weight cutoff        WCut        ...    1.0000e-14
Grids for H and He will be reduced by one unit

# of grid points (after initial pruning)     ...   4052 (   0.0 sec)
# of grid points (after weights+screening)   ...   4023 (   0.0 sec)
nearest neighbour list constructed           ...    0.0 sec
Grid point re-assignment to atoms done       ...    0.0 sec
Grid point division into batches done        ...    0.0 sec
Reduced shell lists constructed in    0.0 sec

Total number of grid points                  ...     4023
Total number of batches                      ...       64
Average number of points per batch           ...       62
Average number of grid points per atom       ...     2012
Average number of shells per batch           ...     5.75 (25.00%)
Average number of basis functions per batch  ...    13.75 (18.84%)
Average number of large shells per batch     ...     5.25 (91.30%)
Average number of large basis fcns per batch ...    12.75 (92.73%)
Maximum spatial batch extension              ...  26.33, 48.08, 25.46 au
Average spatial batch extension              ...   1.14,  1.92,  1.15 au

Final grid set up in    0.0 sec

-------------------------------------------------------------------------------
                         DFT-NL dispersion correction                          
-------------------------------------------------------------------------------

SC Energy -147.563313045 
NL    Energy 0.078782216 
SC+NL Energy -147.484530829 
NL done in    0.1 sec
-------------------------------------------------------------------------------
Total Energy       :         -147.48453083 Eh           -4013.25811 eV
  Last Energy change         ...   -5.3575e-11  Tolerance :   1.0000e-08
  Last MAX-Density change    ...    1.5406e-06  Tolerance :   1.0000e-07
             **** THE GBW FILE WAS UPDATED (Ag01N0_H.gbw) ****
             **** DENSITY FILE WAS UPDATED (Ag01N0_H.scfp) ****
             **** ENERGY FILE WAS UPDATED (Ag01N0_H.en.tmp) ****
             **** THE GBW FILE WAS UPDATED (Ag01N0_H.gbw) ****
             **** DENSITY FILE WAS UPDATED (Ag01N0_H.scfp) ****
Total SCF time: 0 days 0 hours 0 min 2 sec 

-------------------------   --------------------
FINAL SINGLE POINT ENERGY      -147.484530829467
-------------------------   --------------------


----------------------------------------------------------------------------
                           ORCA NUMERICAL GRADIENT
                              (24-process run)
----------------------------------------------------------------------------

I state                        ... 1
J state                        ... 0
Number of atoms                ... 2
Derivative's order of accuracy ... 2
Central differences            ... used
Number of displacements        ... 12
Numerical increment            ... 5.000e-03 bohr
Translation invariance         ... used

The output will be reduced. Please look at the following files:
SCF program output             ... >Ag01N0_H.lastscf
Integral program output        ... >Ag01N0_H.lastint
Gradient program output        ... >Ag01N0_H.lastgrad


     Note:   There are more processes than displacements to do
     ===>:   Reducing number of processes to   3

             <<<Displacing   2/coordinate 1 (+)>>>
             <<<Displacing   2/coordinate 2 (+)>>>
             <<<Displacing   2/coordinate 3 (+)>>>
             <<<Displacing   2/coordinate 1 (-)>>>
             <<<Displacing   2/coordinate 2 (-)>>>
             <<<Displacing   2/coordinate 3 (-)>>>

------------------------------
CARTESIAN GRADIENT (NUMERICAL)
-------------------------------
   1   Ag  :   -0.000000097    0.000000006   -0.000079486
   2   H   :    0.000000097   -0.000000006    0.000079486

Norm of the cartesian gradient     ...    0.000112410
RMS gradient                       ...    0.000045891
MAX gradient                       ...    0.000079486

-------
TIMINGS
-------

Total numerical gradient time      ...       14.344 sec

------------------------------------------------------------------------------
                         ORCA GEOMETRY RELAXATION STEP
------------------------------------------------------------------------------

Reading the OPT-File                    .... done
Getting information on internals        .... done
Copying old internal coords+grads       .... done
Making the new internal coordinates     .... (new redundants).... done
Validating the new internal coordinates .... (new redundants).... done
Calculating the B-matrix                .... done
Calculating the G,G- and P matrices     .... done
Transforming gradient to internals      .... done
Projecting the internal gradient        .... done
Number of atoms                         ....   2
Number of internal coordinates          ....   1
Current Energy                          ....  -147.484530829 Eh
Current gradient norm                   ....     0.000112410 Eh/bohr
Maximum allowed component of the step   ....  0.300
Current trust radius                    ....  0.300
Updating the Hessian (BFGS)             .... done
Forming the augmented Hessian           .... done
Diagonalizing the augmented Hessian     .... done
Last element of RFO vector              ....  0.999999788
Lowest eigenvalues of augmented Hessian:
 -0.000000052
Length of the computed step             ....  0.000651162
The final length of the internal step   ....  0.000651162
Converting the step to cartesian space:
 Initial RMS(Int)=    0.0006511616
Transforming coordinates:
 Iter   0:  RMS(Cart)=    0.0001879742 RMS(Int)=    0.0006511616
 Iter   1:  RMS(Cart)=    0.0000000000 RMS(Int)=    0.0000000000
done
Storing new coordinates                 .... done

                                .--------------------.
          ----------------------|Geometry convergence|-------------------------
          Item                value                   Tolerance       Converged
          ---------------------------------------------------------------------
          Energy change      -0.0000294107            0.0000050000      NO
          RMS gradient        0.0000794855            0.0001000000      YES
          MAX gradient        0.0000794855            0.0003000000      YES
          RMS step            0.0006511616            0.0020000000      YES
          MAX step            0.0006511616            0.0040000000      YES
          ........................................................
          Max(Bonds)      0.0003      Max(Angles)    0.00
          Max(Dihed)        0.00      Max(Improp)    0.00
          ---------------------------------------------------------------------

       Everything but the energy has converged. However, the energy
       appears to be close enough to convergence to make sure that the
       final evaluation at the new geometry represents the equilibrium energy.
       Convergence will therefore be signaled now


                    ***********************HURRAY********************
                    ***        THE OPTIMIZATION HAS CONVERGED     ***
                    *************************************************


    ---------------------------------------------------------------------------
                         Redundant Internal Coordinates

                          --- Optimized Parameters ---  
                            (Angstroem and degrees)

        Definition                    OldVal   dE/dq     Step     FinalVal
    ----------------------------------------------------------------------------
     1. B(H   1,Ag  0)                1.6250 -0.000079  0.0003    1.6254   
    ----------------------------------------------------------------------------
                 *******************************************************
                 *** FINAL ENERGY EVALUATION AT THE STATIONARY POINT ***
                 ***               (AFTER    3 CYCLES)               ***
                 *******************************************************
---------------------------------
CARTESIAN COORDINATES (ANGSTROEM)
---------------------------------
  Ag     0.000000    0.000000    0.041105
  H      0.000000    0.000000   -1.584264

----------------------------
CARTESIAN COORDINATES (A.U.)
----------------------------
  NO LB      ZA    FRAG     MASS         X           Y           Z
   0 Ag   19.0000*   0   107.870    0.000000    0.000000    0.077677
   1 H     1.0000    0     1.008    0.000000    0.000000   -2.993825
* core charge reduced due to ECP

--------------------------------
INTERNAL COORDINATES (ANGSTROEM)
--------------------------------
 Ag     0   0   0     0.000000000000     0.00000000     0.00000000
 H      1   0   0     1.625368609822     0.00000000     0.00000000

---------------------------
INTERNAL COORDINATES (A.U.)
---------------------------
 Ag     0   0   0     0.000000000000     0.00000000     0.00000000
 H      1   0   0     3.071501539235     0.00000000     0.00000000

---------------------
BASIS SET INFORMATION
---------------------
There are 2 groups of distinct atoms

 Group   1 Type Ag  : 7s7p6d2f1g contracted to 6s4p3d2f1g pattern {211111/4111/411/11/1}
 Group   2 Type H   : 5s3p1d contracted to 3s3p1d pattern {311/111/1}

Atom   0Ag   basis set group =>   1
Atom   1H    basis set group =>   2
----------------------------------
AUXILIARY/JK BASIS SET INFORMATION
----------------------------------
There are 2 groups of distinct atoms

 Group   1 Type Ag  : 13s12p10d9f6g3h2i contracted to 11s10p9d8f6g3h2i pattern {31111111111/3111111111/211111111/21111111/111111/111/11}
 Group   2 Type H   : 4s2p2d contracted to 2s2p2d pattern {31/11/11}

Atom   0Ag   basis set group =>   1
Atom   1H    basis set group =>   2
-------------------------
ECP PARAMETER INFORMATION
-------------------------

 Group 1, Type Ag ECP Def2-ECP (replacing 28 core electrons, lmax=3)

Atom   0Ag   ECP group =>   1



           ************************************************************
           *        Program running with 24 parallel MPI-processes    *
           *              working on a common directory               *
           ************************************************************
------------------------------------------------------------------------------
                           ORCA GTO INTEGRAL CALCULATION
------------------------------------------------------------------------------

                         BASIS SET STATISTICS AND STARTUP INFO

 # of primitive gaussian shells          ...   32
 # of primitive gaussian functions       ...  100
 # of contracted shells                  ...   23
 # of contracted basis functions         ...   73
 Highest angular momentum                ...    4
 Maximum contraction depth               ...    4
 Integral package used                   ... LIBINT
 Integral threshhold            Thresh   ...  2.500e-11
 Primitive cut-off              TCut     ...  2.500e-12


------------------------------ INTEGRAL EVALUATION ----------------------------


 * One electron integrals 

   ECP integrals                         ... done
 Pre-screening matrix                    ... done
 Shell pair data                         ... done (   0.000 sec)



           ************************************************************
           *        Program running with 24 parallel MPI-processes    *
           *              working on a common directory               *
           ************************************************************
-------------------------------------------------------------------------------
                                 ORCA SCF
-------------------------------------------------------------------------------

------------
SCF SETTINGS
------------
Hamiltonian:
 Density Functional     Method          .... DFT(GTOs)
 Exchange Functional    Exchange        .... WB97M-V
 Correlation Functional Correlation     .... WB97M-V
 Gradients option       PostSCFGGA      .... off
 Hybrid DFT is turned on
   Fraction HF Exchange ScalHFX         ....  0.150000
   Scaling of DF-GGA-X  ScalDFX         ....  0.000000
   Scaling of DF-GGA-C  ScalDFC         ....  1.000000
   Scaling of DF-LDA-C  ScalLDAC        ....  1.000000
   Perturbative correction              ....  0.000000
   Density functional embedding theory  .... OFF
 Long-range corrected/Screened/Range-Separated Hybrid DFT is turned on
   Amount of maximum screened exact exchange              ....  0.850000
   Range separation parameter mu (erf(mu*r12)/r12)        ....  0.300000
   NL short-range parameter             ....  6.000000
   NL long-range parameter              ....  0.010000


General Settings:
 Integral files         IntName         .... Ag01N0_H
 Hartree-Fock type      HFTyp           .... RHF
 Total Charge           Charge          ....    0
 Multiplicity           Mult            ....    1
 Number of Electrons    NEL             ....   20
 Basis Dimension        Dim             ....   73
 Nuclear Repulsion      ENuc            ....      6.1858995535 Eh

Convergence Acceleration:
 DIIS                   CNVDIIS         .... on
   Start iteration      DIISMaxIt       ....    12
   Startup error        DIISStart       ....  0.200000
   # of expansion vecs  DIISMaxEq       ....     5
   Bias factor          DIISBfac        ....   1.050
   Max. coefficient     DIISMaxC        ....  10.000
 Newton-Raphson         CNVNR           .... off
 SOSCF                  CNVSOSCF        .... off
 Level Shifting         CNVShift        .... on
   Level shift para.    LevelShift      ....    0.2500
   Turn off err/grad.   ShiftErr        ....    0.0010
 Zerner damping         CNVZerner       .... off
 Static damping         CNVDamp         .... on
   Fraction old density DampFac         ....    0.7000
   Max. Damping (<1)    DampMax         ....    0.9800
   Min. Damping (>=0)   DampMin         ....    0.0000
   Turn off err/grad.   DampErr         ....    0.1000
 Fernandez-Rico         CNVRico         .... off

SCF Procedure:
 Maximum # iterations   MaxIter         ....   125
 SCF integral mode      SCFMode         .... Direct
   Integral package                     .... LIBINT
 Reset frequency        DirectResetFreq ....    20
 Integral Threshold     Thresh          ....  2.500e-11 Eh
 Primitive CutOff       TCut            ....  2.500e-12 Eh

Convergence Tolerance:
 Convergence Check Mode ConvCheckMode   .... Total+1el-Energy
 Convergence forced     ConvForced      .... 0
 Energy Change          TolE            ....  1.000e-08 Eh
 1-El. energy change                    ....  1.000e-05 Eh
 DIIS Error             TolErr          ....  5.000e-07


Diagonalization of the overlap matrix:
Smallest eigenvalue                        ... 3.515e-03
Time for diagonalization                   ...    0.002 sec
Threshold for overlap eigenvalues          ... 1.000e-08
Number of eigenvalues below threshold      ... 0
Time for construction of square roots      ...    0.001 sec
Total time needed                          ...    0.004 sec

---------------------
INITIAL GUESS: MOREAD
---------------------
Guess MOs are being read from file: Ag01N0_H.gbw
Input Geometry matches current geometry (good)
Input basis set matches current basis set (good)
MOs were renormalized
MOs were reorthogonalized (Cholesky)
                      ------------------
                      INITIAL GUESS DONE (   0.0 sec)
                      ------------------
-------------------
DFT GRID GENERATION
-------------------

General Integration Accuracy     IntAcc      ...  4.670
Radial Grid Type                 RadialGrid  ... Gauss-Chebyshev
Angular Grid (max. acc.)         AngularGrid ... Lebedev-302
Angular grid pruning method      GridPruning ... 3 (G Style)
Weight generation scheme         WeightScheme... Becke
Basis function cutoff            BFCut       ...    1.0000e-11
Integration weight cutoff        WCut        ...    1.0000e-14
Grids for H and He will be reduced by one unit

# of grid points (after initial pruning)     ...  14052 (   0.0 sec)
# of grid points (after weights+screening)   ...  13996 (   0.0 sec)
nearest neighbour list constructed           ...    0.0 sec
Grid point re-assignment to atoms done       ...    0.0 sec
Grid point division into batches done        ...    0.1 sec
Reduced shell lists constructed in    0.1 sec

Total number of grid points                  ...    13996
Total number of batches                      ...      220
Average number of points per batch           ...       63
Average number of grid points per atom       ...     6998
Average number of shells per batch           ...     2.27 ( 9.88%)
Average number of basis functions per batch  ...     4.82 ( 6.60%)
Average number of large shells per batch     ...     2.09 (92.00%)
Average number of large basis fcns per batch ...     4.09 (84.91%)
Maximum spatial batch extension              ...  40.43, 36.77, 24.63 au
Average spatial batch extension              ...   1.32,  1.23,  0.90 au

Time for grid setup =    0.132 sec

--------------
SCF ITERATIONS
--------------
ITER       Energy         Delta-E        Max-DP      RMS-DP      [F,P]     Damp
               ***  Starting incremental Fock matrix formation  ***
  0   -147.5633133343   0.000000000000 0.00002186  0.00000053  0.0004750 0.7000
  1   -147.5633133369  -0.000000002686 0.00002536  0.00000056  0.0003338 0.7000
                               ***Turning on DIIS***
  2   -147.5633133390  -0.000000002067 0.00008799  0.00000181  0.0002342 0.0000
                 **** Energy Check signals convergence ****

               *****************************************************
               *                     SUCCESS                       *
               *           SCF CONVERGED AFTER   3 CYCLES          *
               *****************************************************


Setting up the DFT-NL grid :

General Integration Accuracy     IntAcc      ...  4.340
Radial Grid Type                 RadialGrid  ... Gauss-Chebyshev
Angular Grid (max. acc.)         AngularGrid ... Lebedev-110
Angular grid pruning method      GridPruning ... 3 (G Style)
Weight generation scheme         WeightScheme... Becke
Basis function cutoff            BFCut       ...    1.0000e-11
Integration weight cutoff        WCut        ...    1.0000e-14
Grids for H and He will be reduced by one unit

# of grid points (after initial pruning)     ...   4052 (   0.0 sec)
# of grid points (after weights+screening)   ...   4023 (   0.0 sec)
nearest neighbour list constructed           ...    0.0 sec
Grid point re-assignment to atoms done       ...    0.0 sec
Grid point division into batches done        ...    0.0 sec
Reduced shell lists constructed in    0.0 sec

Total number of grid points                  ...     4023
Total number of batches                      ...       64
Average number of points per batch           ...       62
Average number of grid points per atom       ...     2012
Average number of shells per batch           ...     5.75 (25.00%)
Average number of basis functions per batch  ...    13.75 (18.84%)
Average number of large shells per batch     ...     5.25 (91.30%)
Average number of large basis fcns per batch ...    12.75 (92.73%)
Maximum spatial batch extension              ...  26.33, 48.08, 25.46 au
Average spatial batch extension              ...   1.14,  1.92,  1.15 au

Final grid set up in    0.0 sec

-------------------------------------------------------------------------------
                         DFT-NL dispersion correction                          
-------------------------------------------------------------------------------

SC Energy -147.563313345 
NL    Energy 0.078782453 
SC+NL Energy -147.484530892 
NL done in    0.1 sec
-------------------------------------------------------------------------------

----------------
TOTAL SCF ENERGY
----------------

Total Energy       :         -147.48453089 Eh           -4013.25812 eV

Components:
Nuclear Repulsion  :            6.18589955 Eh             168.32688 eV
Electronic Energy  :         -153.67043045 Eh           -4181.58500 eV
One Electron Energy:         -273.89344843 Eh           -7453.01964 eV
Two Electron Energy:          120.22301798 Eh            3271.43464 eV

Virial components:
Potential Energy   :         -204.34643165 Eh           -5560.54910 eV
Kinetic Energy     :           56.86190076 Eh            1547.29098 eV
Virial Ratio       :            3.59373199


DFT components:
N(Alpha)           :        9.999998895309 electrons
N(Beta)            :        9.999998895309 electrons
N(Total)           :       19.999997790619 electrons
E(X)               :       -9.073422457731 Eh       
E(C)               :       -0.710352540582 Eh       
NL Energy, E(C,NL) :        0.078782452566 Eh       
E(XC)              :       -9.704992545746 Eh       
DFET-embed. en.    :        0.000000000000 Eh       

---------------
SCF CONVERGENCE
---------------

  Last Energy change         ...   -5.8991e-09  Tolerance :   1.0000e-08
  Last MAX-Density change    ...    4.2378e-05  Tolerance :   1.0000e-07
  Last RMS-Density change    ...    8.2214e-07  Tolerance :   5.0000e-09
  Last DIIS Error            ...    8.2778e-06  Tolerance :   5.0000e-07

             **** THE GBW FILE WAS UPDATED (Ag01N0_H.gbw) ****
             **** DENSITY FILE WAS UPDATED (Ag01N0_H.scfp) ****
             **** ENERGY FILE WAS UPDATED (Ag01N0_H.en.tmp) ****
             **** THE GBW FILE WAS UPDATED (Ag01N0_H.gbw) ****
             **** DENSITY FILE WAS UPDATED (Ag01N0_H.scfp) ****
----------------
ORBITAL ENERGIES
----------------

  NO   OCC          E(Eh)            E(eV) 
   0   2.0000      -3.881159      -105.6117 
   1   2.0000      -2.471806       -67.2613 
   2   2.0000      -2.464840       -67.0717 
   3   2.0000      -2.464840       -67.0717 
   4   2.0000      -0.488309       -13.2876 
   5   2.0000      -0.449714       -12.2374 
   6   2.0000      -0.449714       -12.2374 
   7   2.0000      -0.442402       -12.0384 
   8   2.0000      -0.442402       -12.0384 
   9   2.0000      -0.330991        -9.0067 
  10   0.0000      -0.023707        -0.6451 
  11   0.0000       0.035369         0.9624 
  12   0.0000       0.035369         0.9624 
  13   0.0000       0.102635         2.7928 
  14   0.0000       0.138591         3.7712 
  15   0.0000       0.222308         6.0493 
  16   0.0000       0.222308         6.0493 
  17   0.0000       0.231929         6.3111 
  18   0.0000       0.281664         7.6645 
  19   0.0000       0.281664         7.6645 
  20   0.0000       0.447914        12.1884 
  21   0.0000       0.489566        13.3218 
  22   0.0000       0.489566        13.3218 
  23   0.0000       0.510563        13.8931 
  24   0.0000       0.586893        15.9702 
  25   0.0000       0.586893        15.9702 
  26   0.0000       0.659474        17.9452 
  27   0.0000       0.947831        25.7918 
  28   0.0000       0.947831        25.7918 
  29   0.0000       1.143306        31.1109 
  30   0.0000       1.693927        46.0941 
  31   0.0000       1.693928        46.0941 
  32   0.0000       1.704228        46.3744 
  33   0.0000       1.704228        46.3744 
  34   0.0000       1.704643        46.3857 
  35   0.0000       1.704643        46.3857 
  36   0.0000       1.765664        48.0462 
  37   0.0000       1.765664        48.0462 
  38   0.0000       1.772402        48.2295 
  39   0.0000       1.946356        52.9630 
  40   0.0000       2.137219        58.1567 
  41   0.0000       2.148329        58.4590 
  42   0.0000       2.148334        58.4592 
  43   0.0000       2.204603        59.9903 
  44   0.0000       2.204603        59.9903 
  45   0.0000       2.312090        62.9152 
  46   0.0000       2.683898        73.0326 
  47   0.0000       3.284066        89.3640 
  48   0.0000       3.284196        89.3675 
  49   0.0000       3.501740        95.2872 
  50   0.0000       3.501740        95.2872 
  51   0.0000       3.897131       106.0463 
  52   0.0000       3.897131       106.0463 
  53   0.0000       3.954080       107.5960 
  54   0.0000       4.559709       124.0760 
  55   0.0000       4.974371       135.3595 
  56   0.0000       4.974371       135.3595 
  57   0.0000       4.983956       135.6203 
  58   0.0000       4.983965       135.6206 
  59   0.0000       5.148130       140.0877 
  60   0.0000       5.148130       140.0877 
  61   0.0000       5.352578       145.6511 
  62   0.0000       5.699750       155.0981 
  63   0.0000       5.699750       155.0981 
  64   0.0000       5.701274       155.1396 
  65   0.0000       5.701281       155.1397 
  66   0.0000       5.703325       155.1954 
  67   0.0000       5.703346       155.1959 
  68   0.0000       5.816433       158.2732 
  69   0.0000       5.816433       158.2732 
  70   0.0000       6.228967       169.4988 
  71   0.0000      33.698699       916.9882 
  72   0.0000     110.882408      3017.2637 

                    ********************************
                    * MULLIKEN POPULATION ANALYSIS *
                    ********************************

-----------------------
MULLIKEN ATOMIC CHARGES
-----------------------
   0 Ag:    0.006167
   1 H :   -0.006167
Sum of atomic charges:   -0.0000000

--------------------------------
MULLIKEN REDUCED ORBITAL CHARGES
--------------------------------
  0 Ags       :     2.963493  s :     2.963493
      pz      :     2.134883  p :     6.135854
      px      :     2.000485
      py      :     2.000485
      dz2     :     1.905639  d :     9.892618
      dxz     :     1.993640
      dyz     :     1.993640
      dx2y2   :     1.999849
      dxy     :     1.999849
      f0      :     0.001391  f :     0.001829
      f+1     :     0.000101
      f-1     :     0.000101
      f+2     :     0.000118
      f-2     :     0.000118
      f+3     :     0.000000
      f-3     :     0.000000
      g0      :     0.000033  g :     0.000040
      g+1     :     0.000003
      g-1     :     0.000003
      g+2     :     0.000001
      g-2     :     0.000001
      g+3     :     0.000000
      g-3     :     0.000000
      g+4     :     0.000000
      g-4     :     0.000000
  1 H s       :     1.000428  s :     1.000428
      pz      :    -0.007015  p :     0.003270
      px      :     0.005142
      py      :     0.005142
      dz2     :     0.001149  d :     0.002469
      dxz     :     0.000627
      dyz     :     0.000627
      dx2y2   :     0.000033
      dxy     :     0.000033


                     *******************************
                     * LOEWDIN POPULATION ANALYSIS *
                     *******************************

----------------------
LOEWDIN ATOMIC CHARGES
----------------------
   0 Ag:    0.303385
   1 H :   -0.303385

-------------------------------
LOEWDIN REDUCED ORBITAL CHARGES
-------------------------------
  0 Ags       :     2.741467  s :     2.741467
      pz      :     2.110432  p :     6.108575
      px      :     1.999071
      py      :     1.999071
      dz2     :     1.900060  d :     9.843305
      dxz     :     1.971960
      dyz     :     1.971960
      dx2y2   :     1.999662
      dxy     :     1.999662
      f0      :     0.002465  f :     0.003226
      f+1     :     0.000260
      f-1     :     0.000260
      f+2     :     0.000120
      f-2     :     0.000120
      f+3     :     0.000000
      f-3     :     0.000000
      g0      :     0.000041  g :     0.000042
      g+1     :     0.000000
      g-1     :     0.000000
      g+2     :     0.000001
      g-2     :     0.000001
      g+3     :     0.000000
      g-3     :     0.000000
      g+4     :     0.000000
      g-4     :     0.000000
  1 H s       :     1.130632  s :     1.130632
      pz      :     0.105304  p :     0.154471
      px      :     0.024584
      py      :     0.024584
      dz2     :     0.009600  d :     0.018282
      dxz     :     0.004124
      dyz     :     0.004124
      dx2y2   :     0.000217
      dxy     :     0.000217


                      *****************************
                      * MAYER POPULATION ANALYSIS *
                      *****************************

  NA   - Mulliken gross atomic population
  ZA   - Total nuclear charge
  QA   - Mulliken gross atomic charge
  VA   - Mayer's total valence
  BVA  - Mayer's bonded valence
  FA   - Mayer's free valence

  ATOM       NA         ZA         QA         VA         BVA        FA
  0 Ag    18.9938    19.0000     0.0062     1.0529     1.0529    -0.0000
  1 H      1.0062     1.0000    -0.0062     1.0529     1.0529    -0.0000

  Mayer bond orders larger than 0.100000
B(  0-Ag,  1-H ) :   1.0529 

-------
TIMINGS
-------

Total SCF time: 0 days 0 hours 0 min 1 sec 

Total time                  ....       1.198 sec
Sum of individual times     ....       0.902 sec  ( 75.3%)

Fock matrix formation       ....       0.746 sec  ( 62.3%)
  XC integration            ....       0.045 sec  (  6.0% of F)
    Basis function eval.    ....       0.004 sec  (  9.8% of XC)
    Density eval.           ....       0.006 sec  ( 12.4% of XC)
    XC-Functional eval.     ....       0.004 sec  (  8.4% of XC)
    XC-Potential eval.      ....       0.007 sec  ( 15.3% of XC)
Diagonalization             ....       0.004 sec  (  0.3%)
Density matrix formation    ....       0.001 sec  (  0.1%)
Population analysis         ....       0.002 sec  (  0.2%)
Initial guess               ....       0.004 sec  (  0.3%)
Orbital Transformation      ....       0.000 sec  (  0.0%)
Orbital Orthonormalization  ....       0.001 sec  (  0.1%)
DIIS solution               ....       0.001 sec  (  0.1%)
Grid generation             ....       0.143 sec  ( 12.0%)

-------------------------   --------------------
FINAL SINGLE POINT ENERGY      -147.484530892348
-------------------------   --------------------

                                *** OPTIMIZATION RUN DONE ***

                            ***************************************
                            *     ORCA property calculations      *
                            ***************************************

                                    ---------------------
                                    Active property flags
                                    ---------------------
   (+) Dipole Moment


------------------------------------------------------------------------------
                       ORCA ELECTRIC PROPERTIES CALCULATION
------------------------------------------------------------------------------

Dipole Moment Calculation                       ... on
Quadrupole Moment Calculation                   ... off
Polarizability Calculation                      ... off
GBWName                                         ... Ag01N0_H.gbw
Electron density file                           ... Ag01N0_H.scfp
The origin for moment calculation is the CENTER OF MASS  = ( 0.000000,  0.000000  0.049241)

-------------
DIPOLE MOMENT
-------------
                                X             Y             Z
Electronic contribution:      0.00000       0.00000       3.79090
Nuclear contribution   :      0.00000       0.00000      -2.50278
                        -----------------------------------------
Total Dipole Moment    :      0.00000       0.00000       1.28812
                        -----------------------------------------
Magnitude (a.u.)       :      1.28812
Magnitude (Debye)      :      3.27414



--------------------
Rotational spectrum 
--------------------
 
Rotational constants in cm-1:     0.000000     6.389577     6.389577 
Rotational constants in MHz :     0.000000 191554.690813 191554.690813 

 Dipole components along the rotational axes: 
x,y,z [a.u.] :     1.288121     0.000000     0.000000 
x,y,z [Debye]:     3.274144     0.000000     0.000000 

 

----------------------------------------------------------------------------
                           ORCA NUMERICAL FREQUENCIES
                              (24-process run)
----------------------------------------------------------------------------

Number of atoms                ... 2
Central differences            ... used
Number of displacements        ... 12
Numerical increment            ... 5.000e-03 bohr
IR-spectrum generation         ... on
Raman-spectrum generation      ... off
Surface Crossing Hessian       ... off

 WARNING: There are more processes than displacements to do
  ====> : Reducing number of processes to   6

The output will be reduced. Please look at the following files:
SCF program output             ... >Ag01N0_H.lastscf
Integral program output        ... >Ag01N0_H.lastint
Gradient program output        ... >Ag01N0_H.lastgrad
Dipole moment program output   ... >Ag01N0_H.lastmom
AutoCI program output          ... >Ag01N0_H.lastautoci


         <<< Energy and Gradient at the input geometry >>>

        <<< Energy and Gradient at displaced geometries >>>
             <<<Displacing   2/coordinate 1 (+)>>>
             <<<Displacing   2/coordinate 2 (+)>>>
             <<<Displacing   1/coordinate 1 (+)>>>
             <<<Displacing   1/coordinate 3 (+)>>>
             <<<Displacing   1/coordinate 2 (+)>>>
             <<<Displacing   2/coordinate 3 (+)>>>
             <<<Displacing   2/coordinate 1 (-)>>>
             <<<Displacing   1/coordinate 2 (-)>>>
             <<<Displacing   2/coordinate 2 (-)>>>
             <<<Displacing   1/coordinate 1 (-)>>>
             <<<Displacing   1/coordinate 3 (-)>>>
             <<<Displacing   2/coordinate 3 (-)>>>
Warning: T+R mode no 5 is zero 

-----------------------
VIBRATIONAL FREQUENCIES
-----------------------

Scaling factor for frequencies =  1.000000000 (already applied!)

   0:         0.00 cm**-1
   1:         0.00 cm**-1
   2:         0.00 cm**-1
   3:         0.00 cm**-1
   4:         0.00 cm**-1
   5:      1772.97 cm**-1


------------
NORMAL MODES
------------

These modes are the cartesian displacements weighted by the diagonal matrix
M(i,i)=1/sqrt(m[i]) where m[i] is the mass of the displaced atom
Thus, these vectors are normalized but *not* orthogonal

                  0          1          2          3          4          5    
      0       0.000000   0.000000   0.000000   0.000000   0.000000   0.000000
      1       0.000000   0.000000   0.000000   0.000000   0.000000   0.000000
      2       0.000000   0.000000   0.000000   0.000000   0.000000   0.009344
      3       0.000000   0.000000   0.000000   0.000000   0.000000   0.000000
      4       0.000000   0.000000   0.000000   0.000000   0.000000   0.000000
      5       0.000000   0.000000   0.000000   0.000000   0.000000  -0.999956


-----------
IR SPECTRUM  
-----------

 Mode    freq (cm**-1)   T**2         TX         TY         TZ
-------------------------------------------------------------------
   5:      1772.97  103.113270  ( -0.000029   0.000003  10.154470)

The first frequency considered to be a vibration is 5
The total number of vibrations considered is 1


--------------------------
THERMOCHEMISTRY AT 298.15K
--------------------------

Temperature         ... 298.15 K
Pressure            ... 1.00 atm
Total Mass          ... 108.88 AMU
The molecule is recognized as being linear

Throughout the following assumptions are being made:
  (1) The electronic state is orbitally nondegenerate
  (2) There are no thermally accessible electronically excited states
  (3) Hindered rotations indicated by low frequency modes are not
      treated as such but are treated as vibrations and this may
      cause some error
  (4) All equations used are the standard statistical mechanics
      equations for an ideal gas
  (5) All vibrations are strictly harmonic

freq.    1772.97  E(vib)   ...       0.00 

------------
INNER ENERGY
------------

The inner energy is: U= E(el) + E(ZPE) + E(vib) + E(rot) + E(trans)
    E(el)   - is the total energy from the electronic structure calculation
              = E(kin-el) + E(nuc-el) + E(el-el) + E(nuc-nuc)
    E(ZPE)  - the the zero temperature vibrational energy from the frequency calculation
    E(vib)  - the the finite temperature correction to E(ZPE) due to population
              of excited vibrational states
    E(rot)  - is the rotational thermal energy
    E(trans)- is the translational thermal energy

Summary of contributions to the inner energy U:
Electronic energy                ...   -147.48453088 Eh
Zero point energy                ...      0.00403912 Eh       2.53 kcal/mol
Thermal vibrational correction   ...      0.00000156 Eh       0.00 kcal/mol
Thermal rotational correction    ...      0.00094418 Eh       0.59 kcal/mol
Thermal translational correction ...      0.00141627 Eh       0.89 kcal/mol
-----------------------------------------------------------------------
Total thermal energy                   -147.47812975 Eh


Summary of corrections to the electronic energy:
(perhaps to be used in another calculation)
Total thermal correction                  0.00236201 Eh       1.48 kcal/mol
Non-thermal (ZPE) correction              0.00403912 Eh       2.53 kcal/mol
-----------------------------------------------------------------------
Total correction                          0.00640113 Eh       4.02 kcal/mol


--------
ENTHALPY
--------

The enthalpy is H = U + kB*T
                kB is Boltzmann's constant
Total free energy                 ...   -147.47812975 Eh 
Thermal Enthalpy correction       ...      0.00094421 Eh       0.59 kcal/mol
-----------------------------------------------------------------------
Total Enthalpy                    ...   -147.47718555 Eh


Note: Rotational entropy computed according to Herzberg 
Infrared and Raman Spectra, Chapter V,1, Van Nostrand Reinhold, 1945 
Point Group:  Cinfv, Symmetry Number:   1  
Rotational constants in cm-1:     0.000000     6.389577     6.389577 

Vibrational entropy computed according to the QRRHO of S. Grimme
Chem.Eur.J. 2012 18 9955


-------
ENTROPY
-------

The entropy contributions are T*S = T*(S(el)+S(vib)+S(rot)+S(trans))
     S(el)   - electronic entropy
     S(vib)  - vibrational entropy
     S(rot)  - rotational entropy
     S(trans)- translational entropy
The entropies will be listed as mutliplied by the temperature to get
units of energy

Electronic entropy                ...      0.00000000 Eh      0.00 kcal/mol
Vibrational entropy               ...      0.00000174 Eh      0.00 kcal/mol
Rotational entropy                ...      0.00422912 Eh      2.65 kcal/mol
Translational entropy             ...      0.01899171 Eh     11.92 kcal/mol
-----------------------------------------------------------------------
Final entropy term                ...      0.02322256 Eh     14.57 kcal/mol

In case the symmetry of your molecule has not been determined correctly
or in case you have a reason to use a different symmetry number we print 
out the resulting rotational entropy values for sn=1,12 :
 --------------------------------------------------------
|  sn= 1 | S(rot)=             -inf Eh      -inf kcal/mol|
|  sn= 2 | S(rot)=             -inf Eh      -inf kcal/mol|
|  sn= 3 | S(rot)=             -inf Eh      -inf kcal/mol|
|  sn= 4 | S(rot)=             -inf Eh      -inf kcal/mol|
|  sn= 5 | S(rot)=             -inf Eh      -inf kcal/mol|
|  sn= 6 | S(rot)=             -inf Eh      -inf kcal/mol|
|  sn= 7 | S(rot)=             -inf Eh      -inf kcal/mol|
|  sn= 8 | S(rot)=             -inf Eh      -inf kcal/mol|
|  sn= 9 | S(rot)=             -inf Eh      -inf kcal/mol|
|  sn=10 | S(rot)=             -inf Eh      -inf kcal/mol|
|  sn=11 | S(rot)=             -inf Eh      -inf kcal/mol|
|  sn=12 | S(rot)=             -inf Eh      -inf kcal/mol|
 --------------------------------------------------------


-------------------
GIBBS FREE ENERGY
-------------------

The Gibbs free energy is G = H - T*S

Total enthalpy                    ...   -147.47718555 Eh 
Total entropy correction          ...     -0.02322256 Eh    -14.57 kcal/mol
-----------------------------------------------------------------------
Final Gibbs free energy         ...   -147.50040811 Eh

For completeness - the Gibbs free energy minus the electronic energy
G-E(el)                           ...     -0.01587723 Eh     -9.96 kcal/mol


Total Time for Numerical Frequencies  :       102.379 sec

Timings for individual modules:

Sum of individual times         ...       73.987 sec (=   1.233 min)
GTO integral calculation        ...        3.586 sec (=   0.060 min)   4.8 %
SCF iterations                  ...       12.836 sec (=   0.214 min)  17.3 %
SCF Gradient evaluation         ...       57.446 sec (=   0.957 min)  77.6 %
Geometry relaxation             ...        0.119 sec (=   0.002 min)   0.2 %
                             ****ORCA TERMINATED NORMALLY****
TOTAL RUN TIME: 0 days 0 hours 2 minutes 40 seconds 592 msec
