
                                 *****************
                                 * O   R   C   A *
                                 *****************

           --- An Ab Initio, DFT and Semiempirical electronic structure package ---

                  #######################################################
                  #                        -***-                        #
                  #          Department of theory and spectroscopy      #
                  #               Directorship: Frank Neese             #
                  #        Max Planck Institute fuer Kohlenforschung    #
                  #                Kaiser Wilhelm Platz 1               #
                  #                 D-45470 Muelheim/Ruhr               #
                  #                      Germany                        #
                  #                                                     #
                  #                  All rights reserved                #
                  #                        -***-                        #
                  #######################################################


                         Program Version 4.2.0 -  RELEASE  -


 With contributions from (in alphabetic order):
   Daniel Aravena         : Magnetic Suceptibility
   Michael Atanasov       : Ab Initio Ligand Field Theory (pilot matlab implementation)
   Alexander A. Auer      : GIAO ZORA, VPT2
   Ute Becker             : Parallelization
   Giovanni Bistoni       : ED, misc. LED, open-shell LED, HFLED
   Martin Brehm           : Molecular dynamics
   Dmytro Bykov           : SCF Hessian
   Vijay G. Chilkuri      : MRCI spin determinant printing, contributions to CSF-ICE
   Dipayan Datta          : RHF DLPNO-CCSD density
   Achintya Kumar Dutta   : EOM-CC, STEOM-CC
   Dmitry Ganyushin       : Spin-Orbit,Spin-Spin,Magnetic field MRCI
   Miquel Garcia          : C-PCM Hessian, Gaussian charge scheme
   Yang Guo               : DLPNO-NEVPT2, CIM, IAO-localization
   Andreas Hansen         : Spin unrestricted coupled pair/coupled cluster methods
   Benjamin Helmich-Paris : CASSCF linear response (MC-RPA)
   Lee Huntington         : MR-EOM, pCC
   Robert Izsak           : Overlap fitted RIJCOSX, COSX-SCS-MP3, EOM
   Christian Kollmar      : KDIIS, OOCD, Brueckner-CCSD(T), CCSD density
   Simone Kossmann        : Meta GGA functionals, TD-DFT gradient, OOMP2, MP2 Hessian
   Martin Krupicka        : AUTO-CI
   Lucas Lang             : DCDCAS
   Dagmar Lenk            : GEPOL surface, SMD
   Dimitrios Liakos       : Extrapolation schemes; Compound Job, initial MDCI parallelization
   Dimitrios Manganas     : Further ROCIS development; embedding schemes
   Dimitrios Pantazis     : SARC Basis sets
   Taras Petrenko         : DFT Hessian,TD-DFT gradient, ASA, ECA, R-Raman, ABS, FL, XAS/XES, NRVS
   Peter Pinski           : DLPNO-MP2, DLPNO-MP2 Gradient
   Christoph Reimann      : Effective Core Potentials
   Marius Retegan         : Local ZFS, SOC
   Christoph Riplinger    : Optimizer, TS searches, QM/MM, DLPNO-CCSD(T), (RO)-DLPNO pert. Triples
   Tobias Risthaus        : Range-separated hybrids, TD-DFT gradient, RPA, STAB
   Michael Roemelt        : Original ROCIS implementation
   Masaaki Saitow         : Open-shell DLPNO-CCSD energy and density
   Barbara Sandhoefer     : DKH picture change effects
   Avijit Sen             : IP-ROCIS
   Kantharuban Sivalingam : CASSCF convergence, NEVPT2, FIC-MRCI
   Bernardo de Souza      : ESD, SOC TD-DFT
   Georgi Stoychev        : AutoAux, RI-MP2 NMR
   Willem Van den Heuvel  : Paramagnetic NMR
   Boris Wezisla          : Elementary symmetry handling
   Frank Wennmohs         : Technical directorship


 We gratefully acknowledge several colleagues who have allowed us to
 interface, adapt or use parts of their codes:
   Stefan Grimme, W. Hujo, H. Kruse,             : VdW corrections, initial TS optimization,
                  C. Bannwarth                     DFT functionals, gCP, sTDA/sTD-DF
   Ed Valeev, F. Pavosevic, A. Kumar             : LibInt (2-el integral package), F12 methods
   Garnet Chan, S. Sharma, J. Yang, R. Olivares  : DMRG
   Ulf Ekstrom                                   : XCFun DFT Library
   Mihaly Kallay                                 : mrcc  (arbitrary order and MRCC methods)
   Andreas Klamt, Michael Diedenhofen            : otool_cosmo (COSMO solvation model)
   Jiri Pittner, Ondrej Demel                    : Mk-CCSD
   Frank Weinhold                                : gennbo (NPA and NBO analysis)
   Christopher J. Cramer and Donald G. Truhlar   : smd solvation model
   Lars Goerigk                                  : TD-DFT with DH, B97 family of functionals
   V. Asgeirsson, H. Jonsson                     : NEB implementation
   FAccTs GmbH                                   : IRC, NEB, NEB-TS, Multilevel, MM, QM/MM, CI optimization
   S Lehtola, MJT Oliveira, MAL Marques          : LibXC Library


 Your calculation uses the libint2 library for the computation of 2-el integrals
 For citations please refer to: http://libint.valeyev.net

 Your ORCA version has been built with support for libXC version: 4.2.3
 For citations please refer to: https://tddft.org/programs/libxc/

 This ORCA versions uses:
   CBLAS   interface :  Fast vector & matrix operations
   LAPACKE interface :  Fast linear algebra routines
   SCALAPACK package :  Parallel linear algebra routines


Your calculation utilizes the DFT-NL dispersion correction.
Cite in your paper:
Vydrov, O. A.; Van Voorhis, T. J. Chem. Phys. 2010, 133, 244103
Hujo, W.; Grimme, S. J. Chem. Theory Comput. 2011, 7, 3866 
   

----- Orbital basis set information -----
Your calculation utilizes the basis: def2-TZVPPD
   F. Weigend and R. Ahlrichs, Phys. Chem. Chem. Phys. 7, 3297 (2005).
   D. Rappoport and F. Furche, J. Chem. Phys. 133 134105 (2010).

----- AuxJK basis set information -----
Your calculation utilizes the auxiliary basis: def2/JK
   H-Ba, Hf-Rn: F. Weigend, J. Comput. Chem. 29, 167 (2008).

cite the ECPs for Ag [Def2-ECP] as follows:
Ce-Yb(ecp-28): M. Dolg, H. Stoll, H.Preuss, J. Chem. Phys., 1989, 90, 1730-1734.
Y-Cd(ecp-28), Hf-Hg(ecp-46): D. Andrae,U. Haeussermann, M. Dolg, H. Stoll, H. Preuss, Theor. Chim. Acta, 1990, 77, 123-141.
In-Sb(ecp-28), Tl-Bi(ecp-46): B. Metz, H. Stoll, M. Dolg, J. Chem. Phys., 2000, 113, 2563-2569.
Te-Xe(ecp-28), Po-Rn(ecp-46): K. A. Peterson, D. Figgen, E. Goll, H. Stoll, M. Dolg, J. Chem. Phys., 2003, 119, 11113-11123.
Rb(ecp-28), Cs(ecp-46): T. Leininger, A. Nicklass, W. Kuechle, H. Stoll, M. Dolg, A. Bergner, Chem. Phys. Lett., 1996, 255, 274-280.
Sr(ecp-28), Ba(ecp-46): M. Kaupp, P. V. Schleyer, H. Stoll and H. Preuss, J. Chem. Phys., 1991, 94, 1360-1366.
La(ecp-46): M. Dolg, H. Stoll, A. Savin, H. Preuss, Theor. Chim. Acta, 1989, 75, 173-194.
Lu(ecp-28): X. Cao, M. Dolg, J. Chem. Phys., 2001, 115, 7348-7355.

ECP parameters for Ag [Def2-ECP] have been obtained from:
TURBOMOLE (7.0.2)

================================================================================
                                        WARNINGS
                       Please study these warnings very carefully!
================================================================================


WARNING: Geometry Optimization
  ===> : Switching off AutoStart
         For restart on a previous wavefunction, please use MOREAD

INFO   : the flag for use of LIBINT has been found!

================================================================================
                                       INPUT FILE
================================================================================
NAME = Ag02N0.in
|  1> #
|  2> # Ag02N0 wB97M-V/Def2-TZVPPD
|  3> #
|  4> ! wb97m-v def2-tzvppd def2/jk grid4 nofinalgrid opt xyzfile numfreq numgrad
|  5> 
|  6> *xyz 0 1
|  7> Ag       0.000000    0.000000    1.261821 
|  8> Ag       0.000000    0.000000   -1.261821 
|  9> *
| 10> 
| 11> %maxcore 5000
| 12> 
| 13> %pal
| 14> nprocs = 24
| 15> end
| 16> 
| 17> 
| 18>                          ****END OF INPUT****
================================================================================

                       *****************************
                       * Geometry Optimization Run *
                       *****************************

Geometry optimization settings:
Update method            Update   .... BFGS
Choice of coordinates    CoordSys .... Z-matrix Internals
Initial Hessian          InHess   .... Almoef's Model

Convergence Tolerances:
Energy Change            TolE     ....  5.0000e-06 Eh
Max. Gradient            TolMAXG  ....  3.0000e-04 Eh/bohr
RMS Gradient             TolRMSG  ....  1.0000e-04 Eh/bohr
Max. Displacement        TolMAXD  ....  4.0000e-03 bohr
RMS Displacement         TolRMSD  ....  2.0000e-03 bohr
Strict Convergence                ....  False
------------------------------------------------------------------------------
                        ORCA OPTIMIZATION COORDINATE SETUP
------------------------------------------------------------------------------

The optimization will be done in new redundant internal coordinates
Making redundant internal coordinates   ...  (new redundants) done
Evaluating the initial hessian          ...  (Almloef) done
Evaluating the coordinates              ...  done
Calculating the B-matrix                .... done
Calculating the G-matrix                .... done
Diagonalizing the G-matrix              .... done
The first mode is                       ....    0
The number of degrees of freedom        ....    1

    -----------------------------------------------------------------
                    Redundant Internal Coordinates


    -----------------------------------------------------------------
         Definition                    Initial Value    Approx d2E/dq
    -----------------------------------------------------------------
      1. B(Ag  1,Ag  0)                  2.5236         0.993882   
    -----------------------------------------------------------------

Number of atoms                         .... 2
Number of degrees of freedom            .... 1

         *************************************************************
         *                GEOMETRY OPTIMIZATION CYCLE   1            *
         *************************************************************
---------------------------------
CARTESIAN COORDINATES (ANGSTROEM)
---------------------------------
  Ag     0.000000    0.000000    1.261821
  Ag     0.000000    0.000000   -1.261821

----------------------------
CARTESIAN COORDINATES (A.U.)
----------------------------
  NO LB      ZA    FRAG     MASS         X           Y           Z
   0 Ag   19.0000*   0   107.870    0.000000    0.000000    2.384496
   1 Ag   19.0000*   0   107.870    0.000000    0.000000   -2.384496
* core charge reduced due to ECP

--------------------------------
INTERNAL COORDINATES (ANGSTROEM)
--------------------------------
 Ag     0   0   0     0.000000000000     0.00000000     0.00000000
 Ag     1   0   0     2.523642000000     0.00000000     0.00000000

---------------------------
INTERNAL COORDINATES (A.U.)
---------------------------
 Ag     0   0   0     0.000000000000     0.00000000     0.00000000
 Ag     1   0   0     4.768992240061     0.00000000     0.00000000

---------------------
BASIS SET INFORMATION
---------------------
There are 1 groups of distinct atoms

 Group   1 Type Ag  : 7s7p6d2f1g contracted to 6s4p3d2f1g pattern {211111/4111/411/11/1}

Atom   0Ag   basis set group =>   1
Atom   1Ag   basis set group =>   1
----------------------------------
AUXILIARY/JK BASIS SET INFORMATION
----------------------------------
There are 1 groups of distinct atoms

 Group   1 Type Ag  : 13s12p10d9f6g3h2i contracted to 11s10p9d8f6g3h2i pattern {31111111111/3111111111/211111111/21111111/111111/111/11}

Atom   0Ag   basis set group =>   1
Atom   1Ag   basis set group =>   1
-------------------------
ECP PARAMETER INFORMATION
-------------------------

 Group 1, Type Ag ECP Def2-ECP (replacing 28 core electrons, lmax=3)

Atom   0Ag   ECP group =>   1
Atom   1Ag   ECP group =>   1



           ************************************************************
           *        Program running with 24 parallel MPI-processes    *
           *              working on a common directory               *
           ************************************************************
------------------------------------------------------------------------------
                           ORCA GTO INTEGRAL CALCULATION
------------------------------------------------------------------------------

                         BASIS SET STATISTICS AND STARTUP INFO

 # of primitive gaussian shells          ...   46
 # of primitive gaussian functions       ...  162
 # of contracted shells                  ...   32
 # of contracted basis functions         ...  112
 Highest angular momentum                ...    4
 Maximum contraction depth               ...    4
 Integral package used                   ... LIBINT
 Integral threshhold            Thresh   ...  2.500e-11
 Primitive cut-off              TCut     ...  2.500e-12


------------------------------ INTEGRAL EVALUATION ----------------------------


 * One electron integrals 

   ECP integrals                         ... done
 Pre-screening matrix                    ... done
 Shell pair data                         ... done (   0.000 sec)



           ************************************************************
           *        Program running with 24 parallel MPI-processes    *
           *              working on a common directory               *
           ************************************************************
-------------------------------------------------------------------------------
                                 ORCA SCF
-------------------------------------------------------------------------------

------------
SCF SETTINGS
------------
Hamiltonian:
 Density Functional     Method          .... DFT(GTOs)
 Exchange Functional    Exchange        .... WB97M-V
 Correlation Functional Correlation     .... WB97M-V
 Gradients option       PostSCFGGA      .... off
 Hybrid DFT is turned on
   Fraction HF Exchange ScalHFX         ....  0.150000
   Scaling of DF-GGA-X  ScalDFX         ....  0.000000
   Scaling of DF-GGA-C  ScalDFC         ....  1.000000
   Scaling of DF-LDA-C  ScalLDAC        ....  1.000000
   Perturbative correction              ....  0.000000
   Density functional embedding theory  .... OFF
 Long-range corrected/Screened/Range-Separated Hybrid DFT is turned on
   Amount of maximum screened exact exchange              ....  0.850000
   Range separation parameter mu (erf(mu*r12)/r12)        ....  0.300000
   NL short-range parameter             ....  6.000000
   NL long-range parameter              ....  0.010000


General Settings:
 Integral files         IntName         .... Ag02N0
 Hartree-Fock type      HFTyp           .... RHF
 Total Charge           Charge          ....    0
 Multiplicity           Mult            ....    1
 Number of Electrons    NEL             ....   38
 Basis Dimension        Dim             ....  112
 Nuclear Repulsion      ENuc            ....     75.6973343273 Eh

Convergence Acceleration:
 DIIS                   CNVDIIS         .... on
   Start iteration      DIISMaxIt       ....    12
   Startup error        DIISStart       ....  0.200000
   # of expansion vecs  DIISMaxEq       ....     5
   Bias factor          DIISBfac        ....   1.050
   Max. coefficient     DIISMaxC        ....  10.000
 Newton-Raphson         CNVNR           .... off
 SOSCF                  CNVSOSCF        .... off
 Level Shifting         CNVShift        .... on
   Level shift para.    LevelShift      ....    0.2500
   Turn off err/grad.   ShiftErr        ....    0.0010
 Zerner damping         CNVZerner       .... off
 Static damping         CNVDamp         .... on
   Fraction old density DampFac         ....    0.7000
   Max. Damping (<1)    DampMax         ....    0.9800
   Min. Damping (>=0)   DampMin         ....    0.0000
   Turn off err/grad.   DampErr         ....    0.1000
 Fernandez-Rico         CNVRico         .... off

SCF Procedure:
 Maximum # iterations   MaxIter         ....   125
 SCF integral mode      SCFMode         .... Direct
   Integral package                     .... LIBINT
 Reset frequency        DirectResetFreq ....    20
 Integral Threshold     Thresh          ....  2.500e-11 Eh
 Primitive CutOff       TCut            ....  2.500e-12 Eh

Convergence Tolerance:
 Convergence Check Mode ConvCheckMode   .... Total+1el-Energy
 Convergence forced     ConvForced      .... 0
 Energy Change          TolE            ....  1.000e-08 Eh
 1-El. energy change                    ....  1.000e-05 Eh
 DIIS Error             TolErr          ....  5.000e-07


Diagonalization of the overlap matrix:
Smallest eigenvalue                        ... 4.183e-03
Time for diagonalization                   ...    0.004 sec
Threshold for overlap eigenvalues          ... 1.000e-08
Number of eigenvalues below threshold      ... 0
Time for construction of square roots      ...    0.002 sec
Total time needed                          ...    0.005 sec

-------------------
DFT GRID GENERATION
-------------------

General Integration Accuracy     IntAcc      ...  4.670
Radial Grid Type                 RadialGrid  ... Gauss-Chebyshev
Angular Grid (max. acc.)         AngularGrid ... Lebedev-302
Angular grid pruning method      GridPruning ... 3 (G Style)
Weight generation scheme         WeightScheme... Becke
Basis function cutoff            BFCut       ...    1.0000e-11
Integration weight cutoff        WCut        ...    1.0000e-14
Grids for H and He will be reduced by one unit

# of grid points (after initial pruning)     ...  21316 (   0.0 sec)
# of grid points (after weights+screening)   ...  21280 (   0.0 sec)
nearest neighbour list constructed           ...    0.0 sec
Grid point re-assignment to atoms done       ...    0.0 sec
Grid point division into batches done        ...    0.2 sec
Reduced shell lists constructed in    0.2 sec

Total number of grid points                  ...    21280
Total number of batches                      ...      334
Average number of points per batch           ...       63
Average number of grid points per atom       ...    10640
Average number of shells per batch           ...     2.60 ( 8.12%)
Average number of basis functions per batch  ...     5.67 ( 5.06%)
Average number of large shells per batch     ...     1.93 (74.36%)
Average number of large basis fcns per batch ...     4.33 (76.47%)
Maximum spatial batch extension              ...  31.14, 31.14, 19.99 au
Average spatial batch extension              ...   0.98,  0.98,  0.74 au

Time for grid setup =    0.238 sec

------------------------------
INITIAL GUESS: MODEL POTENTIAL
------------------------------
Loading Hartree-Fock densities                     ... done
  calling /sw/apps/orca/orca_4_2_0_linux_x86-64_openmpi314/orca Ag02N0_atom47.inp > Ag02N0_atom47.out in order to generate an atomic fitting density for atom 0 (Ag with ECP) on-the-fly... 
    atom 0 (Ag), assumed electronic state with S=2: 1s2 2s2 2p6 3s2 3p6 4s2 3d10 4p6 5s2 4d9           ... done
Calculating cut-offs                               ... done
Setting up the integral package                    ... done
Initializing the effective Hamiltonian             ... done
Starting the Coulomb interaction                   ... done (   0.0 sec)
Reading the grid                                   ... done
Mapping shells                                     ... done
Starting the XC term evaluation                    ... done (   0.0 sec)
  promolecular density results
     # of electrons  =     94.001747121
     EX              =   -286.846359635
     EC              =     -4.972493760
     EX+EC           =   -291.818853395
Transforming the Hamiltonian                       ... done (   0.0 sec)
Diagonalizing the Hamiltonian                      ... done (   0.0 sec)
Back transforming the eigenvectors                 ... done (   0.0 sec)
Now organizing SCF variables                       ... done
                      ------------------
                      INITIAL GUESS DONE (   1.4 sec)
                      ------------------
--------------
SCF ITERATIONS
--------------
ITER       Energy         Delta-E        Max-DP      RMS-DP      [F,P]     Damp
               ***  Starting incremental Fock matrix formation  ***
  0   -293.8002760022   0.000000000000 0.10607342  0.00302414  0.5150849 0.7000
  1   -293.8909767724  -0.090700770262 0.05720353  0.00200511  0.3405850 0.7000
  2   -293.9291402139  -0.038163441520 0.03916059  0.00112476  0.2265603 0.7000
                               ***Turning on DIIS***
  3   -293.9519849884  -0.022844774448 0.02749582  0.00066186  0.1545093 0.7000
  4   -293.9679422728  -0.015957284402 0.02071112  0.00044908  0.1073696 0.7000
  5   -293.9791865895  -0.011244316666 0.05627438  0.00120233  0.0762129 0.0000
  6   -294.0057417017  -0.026555112254 0.00750753  0.00016085  0.0013993 0.0000
  7   -294.0057660520  -0.000024350317 0.00566189  0.00011422  0.0009979 0.0000
  8   -294.0057775889  -0.000011536886 0.00413601  0.00008213  0.0003105 0.0000
  9   -294.0057799651  -0.000002376213 0.00024541  0.00000583  0.0000478 0.0000
 10   -294.0057800152  -0.000000050032 0.00007603  0.00000252  0.0000220 0.0000
 11   -294.0057800240  -0.000000008852 0.00003298  0.00000092  0.0000096 0.0000
 12   -294.0057800252  -0.000000001207 0.00000877  0.00000025  0.0000044 0.0000
 13   -294.0057800258  -0.000000000551 0.00000365  0.00000011  0.0000011 0.0000
                            ***DIIS convergence achieved***

               *****************************************************
               *                     SUCCESS                       *
               *           SCF CONVERGED AFTER  14 CYCLES          *
               *****************************************************


Setting up the DFT-NL grid :

General Integration Accuracy     IntAcc      ...  4.340
Radial Grid Type                 RadialGrid  ... Gauss-Chebyshev
Angular Grid (max. acc.)         AngularGrid ... Lebedev-110
Angular grid pruning method      GridPruning ... 3 (G Style)
Weight generation scheme         WeightScheme... Becke
Basis function cutoff            BFCut       ...    1.0000e-11
Integration weight cutoff        WCut        ...    1.0000e-14
Grids for H and He will be reduced by one unit

# of grid points (after initial pruning)     ...   6516 (   0.0 sec)
# of grid points (after weights+screening)   ...   6484 (   0.0 sec)
nearest neighbour list constructed           ...    0.0 sec
Grid point re-assignment to atoms done       ...    0.0 sec
Grid point division into batches done        ...    0.0 sec
Reduced shell lists constructed in    0.0 sec

Total number of grid points                  ...     6484
Total number of batches                      ...      102
Average number of points per batch           ...       63
Average number of grid points per atom       ...     3242
Average number of shells per batch           ...     7.83 (24.48%)
Average number of basis functions per batch  ...    20.17 (18.01%)
Average number of large shells per batch     ...     7.17 (91.49%)
Average number of large basis fcns per batch ...    16.83 (83.47%)
Maximum spatial batch extension              ...  24.86, 37.49, 24.53 au
Average spatial batch extension              ...   1.14,  1.42,  1.07 au

Final grid set up in    0.0 sec

-------------------------------------------------------------------------------
                         DFT-NL dispersion correction                          
-------------------------------------------------------------------------------

SC Energy -294.005780026 
NL    Energy 0.146790086 
SC+NL Energy -293.858989940 
NL done in    0.0 sec
-------------------------------------------------------------------------------

----------------
TOTAL SCF ENERGY
----------------

Total Energy       :         -293.85898994 Eh           -7996.30964 eV

Components:
Nuclear Repulsion  :           75.69733433 Eh            2059.82919 eV
Electronic Energy  :         -369.55632427 Eh          -10056.13883 eV
One Electron Energy:         -674.21954069 Eh          -18346.44642 eV
Two Electron Energy:          304.66321642 Eh            8290.30759 eV

Virial components:
Potential Energy   :         -406.68342264 Eh          -11066.41854 eV
Kinetic Energy     :          112.82443270 Eh            3070.10890 eV
Virial Ratio       :            3.60456873


DFT components:
N(Alpha)           :       18.999989741335 electrons
N(Beta)            :       18.999989741335 electrons
N(Total)           :       37.999979482669 electrons
E(X)               :      -17.887282641680 Eh       
E(C)               :       -1.389433502563 Eh       
NL Energy, E(C,NL) :        0.146790086139 Eh       
E(XC)              :      -19.129926058105 Eh       
DFET-embed. en.    :        0.000000000000 Eh       

---------------
SCF CONVERGENCE
---------------

  Last Energy change         ...    5.6104e-11  Tolerance :   1.0000e-08
  Last MAX-Density change    ...    3.4108e-06  Tolerance :   1.0000e-07
  Last RMS-Density change    ...    7.4910e-08  Tolerance :   5.0000e-09
  Last DIIS Error            ...    4.8030e-07  Tolerance :   5.0000e-07

             **** THE GBW FILE WAS UPDATED (Ag02N0.gbw) ****
             **** DENSITY FILE WAS UPDATED (Ag02N0.scfp) ****
             **** ENERGY FILE WAS UPDATED (Ag02N0.en.tmp) ****
             **** THE GBW FILE WAS UPDATED (Ag02N0.gbw) ****
             **** DENSITY FILE WAS UPDATED (Ag02N0.scfp) ****
----------------
ORBITAL ENERGIES
----------------

  NO   OCC          E(Eh)            E(eV) 
   0   2.0000      -3.853750      -104.8659 
   1   2.0000      -3.853143      -104.8494 
   2   2.0000      -2.445827       -66.5543 
   3   2.0000      -2.439072       -66.3705 
   4   2.0000      -2.439072       -66.3705 
   5   2.0000      -2.438753       -66.3618 
   6   2.0000      -2.438507       -66.3551 
   7   2.0000      -2.438507       -66.3551 
   8   2.0000      -0.462642       -12.5891 
   9   2.0000      -0.444980       -12.1085 
  10   2.0000      -0.444980       -12.1085 
  11   2.0000      -0.423086       -11.5128 
  12   2.0000      -0.423084       -11.5127 
  13   2.0000      -0.414821       -11.2879 
  14   2.0000      -0.414819       -11.2878 
  15   2.0000      -0.401468       -10.9245 
  16   2.0000      -0.401468       -10.9245 
  17   2.0000      -0.393529       -10.7085 
  18   2.0000      -0.271073        -7.3763 
  19   0.0000      -0.028263        -0.7691 
  20   0.0000       0.028296         0.7700 
  21   0.0000       0.028296         0.7700 
  22   0.0000       0.042952         1.1688 
  23   0.0000       0.081274         2.2116 
  24   0.0000       0.081274         2.2116 
  25   0.0000       0.121540         3.3073 
  26   0.0000       0.153824         4.1858 
  27   0.0000       0.188999         5.1429 
  28   0.0000       0.240689         6.5495 
  29   0.0000       0.242282         6.5928 
  30   0.0000       0.242282         6.5928 
  31   0.0000       0.309078         8.4104 
  32   0.0000       0.309078         8.4104 
  33   0.0000       0.459673        12.5083 
  34   0.0000       0.462965        12.5979 
  35   0.0000       0.462965        12.5979 
  36   0.0000       0.506775        13.7900 
  37   0.0000       0.506775        13.7901 
  38   0.0000       0.551449        15.0057 
  39   0.0000       0.551452        15.0058 
  40   0.0000       0.660358        17.9692 
  41   0.0000       0.665493        18.1090 
  42   0.0000       0.665493        18.1090 
  43   0.0000       0.795699        21.6521 
  44   0.0000       1.513964        41.1970 
  45   0.0000       1.658816        45.1387 
  46   0.0000       1.658816        45.1387 
  47   0.0000       1.708370        46.4871 
  48   0.0000       1.708374        46.4872 
  49   0.0000       1.725040        46.9407 
  50   0.0000       1.725040        46.9407 
  51   0.0000       1.726390        46.9775 
  52   0.0000       1.726390        46.9775 
  53   0.0000       1.727441        47.0061 
  54   0.0000       1.727441        47.0061 
  55   0.0000       1.736446        47.2511 
  56   0.0000       1.736446        47.2511 
  57   0.0000       1.741150        47.3791 
  58   0.0000       1.741153        47.3792 
  59   0.0000       1.750057        47.6215 
  60   0.0000       1.834536        49.9203 
  61   0.0000       1.860050        50.6145 
  62   0.0000       1.860050        50.6145 
  63   0.0000       1.889381        51.4127 
  64   0.0000       2.062070        56.1118 
  65   0.0000       2.157133        58.6986 
  66   0.0000       2.157150        58.6990 
  67   0.0000       2.173224        59.1364 
  68   0.0000       2.173224        59.1364 
  69   0.0000       2.193846        59.6976 
  70   0.0000       2.193860        59.6980 
  71   0.0000       2.252763        61.3008 
  72   0.0000       2.261246        61.5316 
  73   0.0000       2.261246        61.5316 
  74   0.0000       2.429714        66.1159 
  75   0.0000       2.481954        67.5374 
  76   0.0000       4.945433       134.5721 
  77   0.0000       4.945433       134.5721 
  78   0.0000       4.954023       134.8058 
  79   0.0000       4.986027       135.6767 
  80   0.0000       4.986305       135.6843 
  81   0.0000       4.998454       136.0148 
  82   0.0000       4.998454       136.0148 
  83   0.0000       5.000385       136.0674 
  84   0.0000       5.000385       136.0674 
  85   0.0000       5.012956       136.4095 
  86   0.0000       5.013237       136.4171 
  87   0.0000       5.098781       138.7449 
  88   0.0000       5.098781       138.7449 
  89   0.0000       5.296824       144.1339 
  90   0.0000       5.720123       155.6525 
  91   0.0000       5.720123       155.6525 
  92   0.0000       5.722164       155.7080 
  93   0.0000       5.722182       155.7085 
  94   0.0000       5.722223       155.7096 
  95   0.0000       5.722776       155.7247 
  96   0.0000       5.722831       155.7261 
  97   0.0000       5.724231       155.7642 
  98   0.0000       5.724231       155.7642 
  99   0.0000       5.724271       155.7653 
 100   0.0000       5.724271       155.7653 
 101   0.0000       5.725202       155.7907 
 102   0.0000       5.725202       155.7907 
 103   0.0000       5.726031       155.8132 
 104   0.0000       5.726033       155.8133 
 105   0.0000       5.726569       155.8279 
 106   0.0000       5.726569       155.8279 
 107   0.0000       5.741200       156.2260 
 108   0.0000      33.520714       912.1450 
 109   0.0000      33.765797       918.8140 
 110   0.0000     110.847139      3016.3040 
 111   0.0000     110.926440      3018.4619 

                    ********************************
                    * MULLIKEN POPULATION ANALYSIS *
                    ********************************

-----------------------
MULLIKEN ATOMIC CHARGES
-----------------------
   0 Ag:   -0.000001
   1 Ag:    0.000001
Sum of atomic charges:    0.0000000

--------------------------------
MULLIKEN REDUCED ORBITAL CHARGES
--------------------------------
  0 Ags       :     2.965156  s :     2.965156
      pz      :     2.055699  p :     6.068086
      px      :     2.006194
      py      :     2.006194
      dz2     :     1.978456  d :     9.965237
      dxz     :     1.993459
      dyz     :     1.993459
      dx2y2   :     1.999932
      dxy     :     1.999932
      f0      :     0.000682  f :     0.001503
      f+1     :     0.000343
      f-1     :     0.000343
      f+2     :     0.000068
      f-2     :     0.000068
      f+3     :     0.000000
      f-3     :     0.000000
      g0      :     0.000009  g :     0.000019
      g+1     :     0.000005
      g-1     :     0.000005
      g+2     :     0.000001
      g-2     :     0.000001
      g+3     :     0.000000
      g-3     :     0.000000
      g+4     :     0.000000
      g-4     :     0.000000
  1 Ags       :     2.965155  s :     2.965155
      pz      :     2.055698  p :     6.068085
      px      :     2.006194
      py      :     2.006194
      dz2     :     1.978456  d :     9.965237
      dxz     :     1.993459
      dyz     :     1.993459
      dx2y2   :     1.999932
      dxy     :     1.999932
      f0      :     0.000682  f :     0.001503
      f+1     :     0.000343
      f-1     :     0.000343
      f+2     :     0.000068
      f-2     :     0.000068
      f+3     :     0.000000
      f-3     :     0.000000
      g0      :     0.000009  g :     0.000019
      g+1     :     0.000005
      g-1     :     0.000005
      g+2     :     0.000001
      g-2     :     0.000001
      g+3     :     0.000000
      g-3     :     0.000000
      g+4     :     0.000000
      g-4     :     0.000000


                     *******************************
                     * LOEWDIN POPULATION ANALYSIS *
                     *******************************

----------------------
LOEWDIN ATOMIC CHARGES
----------------------
   0 Ag:   -0.000000
   1 Ag:    0.000000

-------------------------------
LOEWDIN REDUCED ORBITAL CHARGES
-------------------------------
  0 Ags       :     2.894034  s :     2.894034
      pz      :     2.110318  p :     6.127561
      px      :     2.008622
      py      :     2.008622
      dz2     :     1.994672  d :     9.976222
      dxz     :     1.990853
      dyz     :     1.990853
      dx2y2   :     1.999922
      dxy     :     1.999922
      f0      :     0.000964  f :     0.002157
      f+1     :     0.000519
      f-1     :     0.000519
      f+2     :     0.000078
      f-2     :     0.000078
      f+3     :     0.000000
      f-3     :     0.000000
      g0      :     0.000012  g :     0.000026
      g+1     :     0.000006
      g-1     :     0.000006
      g+2     :     0.000001
      g-2     :     0.000001
      g+3     :     0.000000
      g-3     :     0.000000
      g+4     :     0.000000
      g-4     :     0.000000
  1 Ags       :     2.894034  s :     2.894034
      pz      :     2.110318  p :     6.127561
      px      :     2.008622
      py      :     2.008622
      dz2     :     1.994672  d :     9.976222
      dxz     :     1.990853
      dyz     :     1.990853
      dx2y2   :     1.999922
      dxy     :     1.999922
      f0      :     0.000964  f :     0.002157
      f+1     :     0.000519
      f-1     :     0.000519
      f+2     :     0.000078
      f-2     :     0.000078
      f+3     :     0.000000
      f-3     :     0.000000
      g0      :     0.000012  g :     0.000026
      g+1     :     0.000006
      g-1     :     0.000006
      g+2     :     0.000001
      g-2     :     0.000001
      g+3     :     0.000000
      g-3     :     0.000000
      g+4     :     0.000000
      g-4     :     0.000000


                      *****************************
                      * MAYER POPULATION ANALYSIS *
                      *****************************

  NA   - Mulliken gross atomic population
  ZA   - Total nuclear charge
  QA   - Mulliken gross atomic charge
  VA   - Mayer's total valence
  BVA  - Mayer's bonded valence
  FA   - Mayer's free valence

  ATOM       NA         ZA         QA         VA         BVA        FA
  0 Ag    19.0000    19.0000    -0.0000     1.0265     1.0265     0.0000
  1 Ag    19.0000    19.0000     0.0000     1.0265     1.0265     0.0000

  Mayer bond orders larger than 0.100000
B(  0-Ag,  1-Ag) :   1.0265 

-------
TIMINGS
-------

Total SCF time: 0 days 0 hours 0 min 5 sec 

Total time                  ....       5.640 sec
Sum of individual times     ....       5.431 sec  ( 96.3%)

Fock matrix formation       ....       4.005 sec  ( 71.0%)
  XC integration            ....       0.260 sec  (  6.5% of F)
    Basis function eval.    ....       0.024 sec  (  9.2% of XC)
    Density eval.           ....       0.031 sec  ( 11.8% of XC)
    XC-Functional eval.     ....       0.019 sec  (  7.4% of XC)
    XC-Potential eval.      ....       0.053 sec  ( 20.4% of XC)
Diagonalization             ....       0.024 sec  (  0.4%)
Density matrix formation    ....       0.004 sec  (  0.1%)
Population analysis         ....       0.003 sec  (  0.1%)
Initial guess               ....       1.123 sec  ( 19.9%)
Orbital Transformation      ....       0.000 sec  (  0.0%)
Orbital Orthonormalization  ....       0.000 sec  (  0.0%)
DIIS solution               ....       0.013 sec  (  0.2%)
Grid generation             ....       0.258 sec  (  4.6%)

-------------------------   --------------------
FINAL SINGLE POINT ENERGY      -293.858989939569
-------------------------   --------------------


----------------------------------------------------------------------------
                           ORCA NUMERICAL GRADIENT
                              (24-process run)
----------------------------------------------------------------------------

I state                        ... 1
J state                        ... 0
Number of atoms                ... 2
Derivative's order of accuracy ... 2
Central differences            ... used
Number of displacements        ... 12
Numerical increment            ... 5.000e-03 bohr
Translation invariance         ... used

The output will be reduced. Please look at the following files:
SCF program output             ... >Ag02N0.lastscf
Integral program output        ... >Ag02N0.lastint
Gradient program output        ... >Ag02N0.lastgrad


     Note:   There are more processes than displacements to do
     ===>:   Reducing number of processes to   3

             <<<Displacing   2/coordinate 2 (+)>>>
             <<<Displacing   2/coordinate 3 (+)>>>
             <<<Displacing   2/coordinate 1 (+)>>>
             <<<Displacing   2/coordinate 1 (-)>>>
             <<<Displacing   2/coordinate 2 (-)>>>
             <<<Displacing   2/coordinate 3 (-)>>>

------------------------------
CARTESIAN GRADIENT (NUMERICAL)
-------------------------------
   1   Ag  :   -0.000001008    0.000000699   -0.006931455
   2   Ag  :    0.000001008   -0.000000699    0.006931455

Norm of the cartesian gradient     ...    0.009802558
RMS gradient                       ...    0.004001877
MAX gradient                       ...    0.006931455

-------
TIMINGS
-------

Total numerical gradient time      ...       42.231 sec

------------------------------------------------------------------------------
                         ORCA GEOMETRY RELAXATION STEP
------------------------------------------------------------------------------

Reading the OPT-File                    .... done
Getting information on internals        .... done
Copying old internal coords+grads       .... done
Making the new internal coordinates     .... (new redundants).... done
Validating the new internal coordinates .... (new redundants).... done
Calculating the B-matrix                .... done
Calculating the G,G- and P matrices     .... done
Transforming gradient to internals      .... done
Projecting the internal gradient        .... done
Number of atoms                         ....   2
Number of internal coordinates          ....   1
Current Energy                          ....  -293.858989940 Eh
Current gradient norm                   ....     0.009802558 Eh/bohr
Maximum allowed component of the step   ....  0.300
Current trust radius                    ....  0.300
Evaluating the initial hessian          ....  (Almloef) done
Projecting the Hessian                  .... done
Forming the augmented Hessian           .... done
Diagonalizing the augmented Hessian     .... done
Last element of RFO vector              ....  0.999975684
Lowest eigenvalues of augmented Hessian:
 -0.000048338
Length of the computed step             ....  0.006973786
The final length of the internal step   ....  0.006973786
Converting the step to cartesian space:
 Initial RMS(Int)=    0.0069737857
Transforming coordinates:
 Iter   0:  RMS(Cart)=    0.0020131585 RMS(Int)=    0.0069737857
 Iter   1:  RMS(Cart)=    0.0000000000 RMS(Int)=    0.0000000000
done
Storing new coordinates                 .... done

                                .--------------------.
          ----------------------|Geometry convergence|-------------------------
          Item                value                   Tolerance       Converged
          ---------------------------------------------------------------------
          RMS gradient        0.0069314548            0.0001000000      NO
          MAX gradient        0.0069314548            0.0003000000      NO
          RMS step            0.0069737857            0.0020000000      NO
          MAX step            0.0069737857            0.0040000000      NO
          ........................................................
          Max(Bonds)      0.0037      Max(Angles)    0.00
          Max(Dihed)        0.00      Max(Improp)    0.00
          ---------------------------------------------------------------------

The optimization has not yet converged - more geometry cycles are needed


    ---------------------------------------------------------------------------
                         Redundant Internal Coordinates
                            (Angstroem and degrees)

        Definition                    Value    dE/dq     Step     New-Value
    ----------------------------------------------------------------------------
     1. B(Ag  1,Ag  0)                2.5236 -0.006931  0.0037    2.5273   
    ----------------------------------------------------------------------------

         *************************************************************
         *                GEOMETRY OPTIMIZATION CYCLE   2            *
         *************************************************************
---------------------------------
CARTESIAN COORDINATES (ANGSTROEM)
---------------------------------
  Ag     0.000000    0.000000    1.263666
  Ag     0.000000    0.000000   -1.263666

----------------------------
CARTESIAN COORDINATES (A.U.)
----------------------------
  NO LB      ZA    FRAG     MASS         X           Y           Z
   0 Ag   19.0000*   0   107.870    0.000000    0.000000    2.387983
   1 Ag   19.0000*   0   107.870    0.000000    0.000000   -2.387983
* core charge reduced due to ECP

--------------------------------
INTERNAL COORDINATES (ANGSTROEM)
--------------------------------
 Ag     0   0   0     0.000000000000     0.00000000     0.00000000
 Ag     1   0   0     2.527332368423     0.00000000     0.00000000

---------------------------
INTERNAL COORDINATES (A.U.)
---------------------------
 Ag     0   0   0     0.000000000000     0.00000000     0.00000000
 Ag     1   0   0     4.775966025714     0.00000000     0.00000000



           ************************************************************
           *        Program running with 24 parallel MPI-processes    *
           *              working on a common directory               *
           ************************************************************


           ************************************************************
           *        Program running with 24 parallel MPI-processes    *
           *              working on a common directory               *
           ************************************************************

Diagonalization of the overlap matrix:
Smallest eigenvalue                        ... 4.213e-03
Time for diagonalization                   ...    0.003 sec
Threshold for overlap eigenvalues          ... 1.000e-08
Number of eigenvalues below threshold      ... 0
Time for construction of square roots      ...    0.002 sec
Total time needed                          ...    0.005 sec

-------------------
DFT GRID GENERATION
-------------------

General Integration Accuracy     IntAcc      ...  4.670
Radial Grid Type                 RadialGrid  ... Gauss-Chebyshev
Angular Grid (max. acc.)         AngularGrid ... Lebedev-302
Angular grid pruning method      GridPruning ... 3 (G Style)
Weight generation scheme         WeightScheme... Becke
Basis function cutoff            BFCut       ...    1.0000e-11
Integration weight cutoff        WCut        ...    1.0000e-14
Grids for H and He will be reduced by one unit

# of grid points (after initial pruning)     ...  21316 (   0.0 sec)
# of grid points (after weights+screening)   ...  21280 (   0.0 sec)
nearest neighbour list constructed           ...    0.0 sec
Grid point re-assignment to atoms done       ...    0.0 sec
Grid point division into batches done        ...    0.2 sec
Reduced shell lists constructed in    0.2 sec

Total number of grid points                  ...    21280
Total number of batches                      ...      334
Average number of points per batch           ...       63
Average number of grid points per atom       ...    10640
Average number of shells per batch           ...     2.53 ( 7.92%)
Average number of basis functions per batch  ...     5.47 ( 4.88%)
Average number of large shells per batch     ...     1.93 (76.32%)
Average number of large basis fcns per batch ...     4.33 (79.27%)
Maximum spatial batch extension              ...  31.14, 31.14, 19.99 au
Average spatial batch extension              ...   0.98,  0.98,  0.74 au

Time for grid setup =    0.218 sec

--------------
SCF ITERATIONS
--------------
ITER       Energy         Delta-E        Max-DP      RMS-DP      [F,P]     Damp
               ***  Starting incremental Fock matrix formation  ***
  0   -294.0058388559   0.000000000000 0.00007493  0.00000245  0.0032098 0.7000
  1   -294.0058390361  -0.000000180224 0.00008309  0.00000243  0.0022540 0.7000
                               ***Turning on DIIS***
  2   -294.0058391610  -0.000000124868 0.00024320  0.00000691  0.0015805 0.0000
  3   -294.0058394601  -0.000000299173 0.00009649  0.00000315  0.0000347 0.0000
  4   -294.0058394711  -0.000000010969 0.00002219  0.00000082  0.0000311 0.0000
  5   -294.0058394752  -0.000000004060 0.00003884  0.00000111  0.0000099 0.0000
  6   -294.0058394769  -0.000000001756 0.00001162  0.00000035  0.0000039 0.0000
  7   -294.0058394774  -0.000000000427 0.00000391  0.00000011  0.0000020 0.0000
                            ***DIIS convergence achieved***

               *****************************************************
               *                     SUCCESS                       *
               *           SCF CONVERGED AFTER   8 CYCLES          *
               *****************************************************


Setting up the DFT-NL grid :

General Integration Accuracy     IntAcc      ...  4.340
Radial Grid Type                 RadialGrid  ... Gauss-Chebyshev
Angular Grid (max. acc.)         AngularGrid ... Lebedev-110
Angular grid pruning method      GridPruning ... 3 (G Style)
Weight generation scheme         WeightScheme... Becke
Basis function cutoff            BFCut       ...    1.0000e-11
Integration weight cutoff        WCut        ...    1.0000e-14
Grids for H and He will be reduced by one unit

# of grid points (after initial pruning)     ...   6516 (   0.0 sec)
# of grid points (after weights+screening)   ...   6484 (   0.0 sec)
nearest neighbour list constructed           ...    0.0 sec
Grid point re-assignment to atoms done       ...    0.0 sec
Grid point division into batches done        ...    0.0 sec
Reduced shell lists constructed in    0.0 sec

Total number of grid points                  ...     6484
Total number of batches                      ...      102
Average number of points per batch           ...       63
Average number of grid points per atom       ...     3242
Average number of shells per batch           ...     7.83 (24.48%)
Average number of basis functions per batch  ...    20.17 (18.01%)
Average number of large shells per batch     ...     7.17 (91.49%)
Average number of large basis fcns per batch ...    16.83 (83.47%)
Maximum spatial batch extension              ...  24.86, 37.49, 24.53 au
Average spatial batch extension              ...   1.14,  1.42,  1.07 au

Final grid set up in    0.0 sec

-------------------------------------------------------------------------------
                         DFT-NL dispersion correction                          
-------------------------------------------------------------------------------

SC Energy -294.005839477 
NL    Energy 0.146803324 
SC+NL Energy -293.859036153 
NL done in    0.1 sec
-------------------------------------------------------------------------------
Total Energy       :         -293.85903615 Eh           -7996.31090 eV
  Last Energy change         ...   -8.4242e-11  Tolerance :   1.0000e-08
  Last MAX-Density change    ...    1.8849e-06  Tolerance :   1.0000e-07
             **** THE GBW FILE WAS UPDATED (Ag02N0.gbw) ****
             **** DENSITY FILE WAS UPDATED (Ag02N0.scfp) ****
             **** ENERGY FILE WAS UPDATED (Ag02N0.en.tmp) ****
             **** THE GBW FILE WAS UPDATED (Ag02N0.gbw) ****
             **** DENSITY FILE WAS UPDATED (Ag02N0.scfp) ****
Total SCF time: 0 days 0 hours 0 min 2 sec 

-------------------------   --------------------
FINAL SINGLE POINT ENERGY      -293.859036153164
-------------------------   --------------------


----------------------------------------------------------------------------
                           ORCA NUMERICAL GRADIENT
                              (24-process run)
----------------------------------------------------------------------------

I state                        ... 1
J state                        ... 0
Number of atoms                ... 2
Derivative's order of accuracy ... 2
Central differences            ... used
Number of displacements        ... 12
Numerical increment            ... 5.000e-03 bohr
Translation invariance         ... used

The output will be reduced. Please look at the following files:
SCF program output             ... >Ag02N0.lastscf
Integral program output        ... >Ag02N0.lastint
Gradient program output        ... >Ag02N0.lastgrad


     Note:   There are more processes than displacements to do
     ===>:   Reducing number of processes to   3

             <<<Displacing   2/coordinate 1 (+)>>>
             <<<Displacing   2/coordinate 3 (+)>>>
             <<<Displacing   2/coordinate 2 (+)>>>
             <<<Displacing   2/coordinate 1 (-)>>>
             <<<Displacing   2/coordinate 2 (-)>>>
             <<<Displacing   2/coordinate 3 (-)>>>

------------------------------
CARTESIAN GRADIENT (NUMERICAL)
-------------------------------
   1   Ag  :   -0.000000743    0.000001094   -0.006325001
   2   Ag  :    0.000000743   -0.000001094    0.006325001

Norm of the cartesian gradient     ...    0.008944903
RMS gradient                       ...    0.003651741
MAX gradient                       ...    0.006325001

-------
TIMINGS
-------

Total numerical gradient time      ...       41.748 sec

------------------------------------------------------------------------------
                         ORCA GEOMETRY RELAXATION STEP
------------------------------------------------------------------------------

Reading the OPT-File                    .... done
Getting information on internals        .... done
Copying old internal coords+grads       .... done
Making the new internal coordinates     .... (new redundants).... done
Validating the new internal coordinates .... (new redundants).... done
Calculating the B-matrix                .... done
Calculating the G,G- and P matrices     .... done
Transforming gradient to internals      .... done
Projecting the internal gradient        .... done
Number of atoms                         ....   2
Number of internal coordinates          ....   1
Current Energy                          ....  -293.859036153 Eh
Current gradient norm                   ....     0.008944903 Eh/bohr
Maximum allowed component of the step   ....  0.300
Current trust radius                    ....  0.300
Updating the Hessian (BFGS)             .... done
Forming the augmented Hessian           .... done
Diagonalizing the augmented Hessian     .... done
Last element of RFO vector              ....  0.997392805
Lowest eigenvalues of augmented Hessian:
 -0.000457628
Length of the computed step             ....  0.072352283
The final length of the internal step   ....  0.072352283
Converting the step to cartesian space:
 Initial RMS(Int)=    0.0723522831
Transforming coordinates:
 Iter   0:  RMS(Cart)=    0.0208863051 RMS(Int)=    0.0723522831
 Iter   1:  RMS(Cart)=    0.0000000000 RMS(Int)=    0.0000000000
done
Storing new coordinates                 .... done

                                .--------------------.
          ----------------------|Geometry convergence|-------------------------
          Item                value                   Tolerance       Converged
          ---------------------------------------------------------------------
          Energy change      -0.0000462136            0.0000050000      NO
          RMS gradient        0.0063250012            0.0001000000      NO
          MAX gradient        0.0063250012            0.0003000000      NO
          RMS step            0.0723522831            0.0020000000      NO
          MAX step            0.0723522831            0.0040000000      NO
          ........................................................
          Max(Bonds)      0.0383      Max(Angles)    0.00
          Max(Dihed)        0.00      Max(Improp)    0.00
          ---------------------------------------------------------------------

The optimization has not yet converged - more geometry cycles are needed


    ---------------------------------------------------------------------------
                         Redundant Internal Coordinates
                            (Angstroem and degrees)

        Definition                    Value    dE/dq     Step     New-Value
    ----------------------------------------------------------------------------
     1. B(Ag  1,Ag  0)                2.5273 -0.006325  0.0383    2.5656   
    ----------------------------------------------------------------------------

         *************************************************************
         *                GEOMETRY OPTIMIZATION CYCLE   3            *
         *************************************************************


           ************************************************************
           *        Program running with 24 parallel MPI-processes    *
           *              working on a common directory               *
           ************************************************************


           ************************************************************
           *        Program running with 24 parallel MPI-processes    *
           *              working on a common directory               *
           ************************************************************

Diagonalization of the overlap matrix:
Smallest eigenvalue                        ... 4.533e-03
Time for diagonalization                   ...    0.004 sec
Threshold for overlap eigenvalues          ... 1.000e-08
Number of eigenvalues below threshold      ... 0
Time for construction of square roots      ...    0.002 sec
Total time needed                          ...    0.006 sec

-------------------
DFT GRID GENERATION
-------------------

General Integration Accuracy     IntAcc      ...  4.670
Radial Grid Type                 RadialGrid  ... Gauss-Chebyshev
Angular Grid (max. acc.)         AngularGrid ... Lebedev-302
Angular grid pruning method      GridPruning ... 3 (G Style)
Weight generation scheme         WeightScheme... Becke
Basis function cutoff            BFCut       ...    1.0000e-11
Integration weight cutoff        WCut        ...    1.0000e-14
Grids for H and He will be reduced by one unit

# of grid points (after initial pruning)     ...  21316 (   0.0 sec)
# of grid points (after weights+screening)   ...  21282 (   0.0 sec)
nearest neighbour list constructed           ...    0.0 sec
Grid point re-assignment to atoms done       ...    0.0 sec
Grid point division into batches done        ...    0.2 sec
Reduced shell lists constructed in    0.2 sec

Total number of grid points                  ...    21282
Total number of batches                      ...      334
Average number of points per batch           ...       63
Average number of grid points per atom       ...    10641
Average number of shells per batch           ...     2.60 ( 8.12%)
Average number of basis functions per batch  ...     5.67 ( 5.06%)
Average number of large shells per batch     ...     1.93 (74.36%)
Average number of large basis fcns per batch ...     4.33 (76.47%)
Maximum spatial batch extension              ...  31.14, 31.14, 19.99 au
Average spatial batch extension              ...   0.98,  0.98,  0.74 au

Time for grid setup =    0.228 sec

--------------
SCF ITERATIONS
--------------
ITER       Energy         Delta-E        Max-DP      RMS-DP      [F,P]     Damp
               ***  Starting incremental Fock matrix formation  ***
  0   -294.0061579386   0.000000000000 0.00074675  0.00002441  0.0325346 0.7000
  1   -294.0061761224  -0.000018183743 0.00082668  0.00002426  0.0228462 0.7000
                               ***Turning on DIIS***
  2   -294.0061887686  -0.000012646222 0.00241643  0.00006907  0.0160199 0.0000
  3   -294.0062190880  -0.000030319414 0.00095391  0.00003161  0.0003453 0.0000
  4   -294.0062202379  -0.000001149891 0.00022685  0.00000830  0.0003025 0.0000
  5   -294.0062206493  -0.000000411383 0.00040327  0.00001128  0.0000999 0.0000
  6   -294.0062208120  -0.000000162744 0.00011207  0.00000335  0.0000387 0.0000
  7   -294.0062208341  -0.000000022076 0.00004304  0.00000121  0.0000218 0.0000
  8   -294.0062208381  -0.000000003995 0.00001998  0.00000057  0.0000070 0.0000
                 **** Energy Check signals convergence ****

               *****************************************************
               *                     SUCCESS                       *
               *           SCF CONVERGED AFTER   9 CYCLES          *
               *****************************************************


Setting up the DFT-NL grid :

General Integration Accuracy     IntAcc      ...  4.340
Radial Grid Type                 RadialGrid  ... Gauss-Chebyshev
Angular Grid (max. acc.)         AngularGrid ... Lebedev-110
Angular grid pruning method      GridPruning ... 3 (G Style)
Weight generation scheme         WeightScheme... Becke
Basis function cutoff            BFCut       ...    1.0000e-11
Integration weight cutoff        WCut        ...    1.0000e-14
Grids for H and He will be reduced by one unit

# of grid points (after initial pruning)     ...   6516 (   0.0 sec)
# of grid points (after weights+screening)   ...   6484 (   0.0 sec)
nearest neighbour list constructed           ...    0.0 sec
Grid point re-assignment to atoms done       ...    0.0 sec
Grid point division into batches done        ...    0.0 sec
Reduced shell lists constructed in    0.0 sec

Total number of grid points                  ...     6484
Total number of batches                      ...      102
Average number of points per batch           ...       63
Average number of grid points per atom       ...     3242
Average number of shells per batch           ...     7.83 (24.48%)
Average number of basis functions per batch  ...    20.17 (18.01%)
Average number of large shells per batch     ...     7.17 (91.49%)
Average number of large basis fcns per batch ...    16.83 (83.47%)
Maximum spatial batch extension              ...  24.86, 37.49, 24.53 au
Average spatial batch extension              ...   1.15,  1.42,  1.07 au

Final grid set up in    0.0 sec

-------------------------------------------------------------------------------
                         DFT-NL dispersion correction                          
-------------------------------------------------------------------------------

SC Energy -294.006220839 
NL    Energy 0.146938264 
SC+NL Energy -293.859282574 
NL done in    0.1 sec
-------------------------------------------------------------------------------
Total Energy       :         -293.85928257 Eh           -7996.31760 eV
  Last Energy change         ...   -8.3003e-10  Tolerance :   1.0000e-08
  Last MAX-Density change    ...    5.4042e-06  Tolerance :   1.0000e-07
             **** THE GBW FILE WAS UPDATED (Ag02N0.gbw) ****
             **** DENSITY FILE WAS UPDATED (Ag02N0.scfp) ****
             **** ENERGY FILE WAS UPDATED (Ag02N0.en.tmp) ****
             **** THE GBW FILE WAS UPDATED (Ag02N0.gbw) ****
             **** DENSITY FILE WAS UPDATED (Ag02N0.scfp) ****
Total SCF time: 0 days 0 hours 0 min 3 sec 

-------------------------   --------------------
FINAL SINGLE POINT ENERGY      -293.859282574458
-------------------------   --------------------


----------------------------------------------------------------------------
                           ORCA NUMERICAL GRADIENT
                              (24-process run)
----------------------------------------------------------------------------

I state                        ... 1
J state                        ... 0
Number of atoms                ... 2
Derivative's order of accuracy ... 2
Central differences            ... used
Number of displacements        ... 12
Numerical increment            ... 5.000e-03 bohr
Translation invariance         ... used

The output will be reduced. Please look at the following files:
SCF program output             ... >Ag02N0.lastscf
Integral program output        ... >Ag02N0.lastint
Gradient program output        ... >Ag02N0.lastgrad


     Note:   There are more processes than displacements to do
     ===>:   Reducing number of processes to   3

             <<<Displacing   2/coordinate 3 (+)>>>
             <<<Displacing   2/coordinate 1 (+)>>>
             <<<Displacing   2/coordinate 2 (+)>>>
             <<<Displacing   2/coordinate 1 (-)>>>
             <<<Displacing   2/coordinate 2 (-)>>>
             <<<Displacing   2/coordinate 3 (-)>>>

------------------------------
CARTESIAN GRADIENT (NUMERICAL)
-------------------------------
   1   Ag  :   -0.000001451    0.000001623   -0.000663298
   2   Ag  :    0.000001451   -0.000001623    0.000663298

Norm of the cartesian gradient     ...    0.000938050
RMS gradient                       ...    0.000382957
MAX gradient                       ...    0.000663298

-------
TIMINGS
-------

Total numerical gradient time      ...       41.055 sec

------------------------------------------------------------------------------
                         ORCA GEOMETRY RELAXATION STEP
------------------------------------------------------------------------------

Reading the OPT-File                    .... done
Getting information on internals        .... done
Copying old internal coords+grads       .... done
Making the new internal coordinates     .... (new redundants).... done
Validating the new internal coordinates .... (new redundants).... done
Calculating the B-matrix                .... done
Calculating the G,G- and P matrices     .... done
Transforming gradient to internals      .... done
Projecting the internal gradient        .... done
Number of atoms                         ....   2
Number of internal coordinates          ....   1
Current Energy                          ....  -293.859282574 Eh
Current gradient norm                   ....     0.000938050 Eh/bohr
Maximum allowed component of the step   ....  0.300
Current trust radius                    ....  0.300
Updating the Hessian (BFGS)             .... done
Forming the augmented Hessian           .... done
Diagonalizing the augmented Hessian     .... done
Last element of RFO vector              ....  0.999964082
Lowest eigenvalues of augmented Hessian:
 -0.000005622
Length of the computed step             ....  0.008475841
The final length of the internal step   ....  0.008475841
Converting the step to cartesian space:
 Initial RMS(Int)=    0.0084758410
Transforming coordinates:
 Iter   0:  RMS(Cart)=    0.0024467645 RMS(Int)=    0.0084758410
 Iter   1:  RMS(Cart)=    0.0000000000 RMS(Int)=    0.0000000000
done
Storing new coordinates                 .... done

                                .--------------------.
          ----------------------|Geometry convergence|-------------------------
          Item                value                   Tolerance       Converged
          ---------------------------------------------------------------------
          Energy change      -0.0002464213            0.0000050000      NO
          RMS gradient        0.0006632982            0.0001000000      NO
          MAX gradient        0.0006632982            0.0003000000      NO
          RMS step            0.0084758410            0.0020000000      NO
          MAX step            0.0084758410            0.0040000000      NO
          ........................................................
          Max(Bonds)      0.0045      Max(Angles)    0.00
          Max(Dihed)        0.00      Max(Improp)    0.00
          ---------------------------------------------------------------------

The optimization has not yet converged - more geometry cycles are needed


    ---------------------------------------------------------------------------
                         Redundant Internal Coordinates
                            (Angstroem and degrees)

        Definition                    Value    dE/dq     Step     New-Value
    ----------------------------------------------------------------------------
     1. B(Ag  1,Ag  0)                2.5656 -0.000663  0.0045    2.5701   
    ----------------------------------------------------------------------------

         *************************************************************
         *                GEOMETRY OPTIMIZATION CYCLE   4            *
         *************************************************************


           ************************************************************
           *        Program running with 24 parallel MPI-processes    *
           *              working on a common directory               *
           ************************************************************


           ************************************************************
           *        Program running with 24 parallel MPI-processes    *
           *              working on a common directory               *
           ************************************************************

Diagonalization of the overlap matrix:
Smallest eigenvalue                        ... 4.571e-03
Time for diagonalization                   ...    0.004 sec
Threshold for overlap eigenvalues          ... 1.000e-08
Number of eigenvalues below threshold      ... 0
Time for construction of square roots      ...    0.001 sec
Total time needed                          ...    0.005 sec

-------------------
DFT GRID GENERATION
-------------------

General Integration Accuracy     IntAcc      ...  4.670
Radial Grid Type                 RadialGrid  ... Gauss-Chebyshev
Angular Grid (max. acc.)         AngularGrid ... Lebedev-302
Angular grid pruning method      GridPruning ... 3 (G Style)
Weight generation scheme         WeightScheme... Becke
Basis function cutoff            BFCut       ...    1.0000e-11
Integration weight cutoff        WCut        ...    1.0000e-14
Grids for H and He will be reduced by one unit

# of grid points (after initial pruning)     ...  21316 (   0.0 sec)
# of grid points (after weights+screening)   ...  21282 (   0.0 sec)
nearest neighbour list constructed           ...    0.0 sec
Grid point re-assignment to atoms done       ...    0.0 sec
Grid point division into batches done        ...    0.2 sec
Reduced shell lists constructed in    0.2 sec

Total number of grid points                  ...    21282
Total number of batches                      ...      334
Average number of points per batch           ...       63
Average number of grid points per atom       ...    10641
Average number of shells per batch           ...     2.53 ( 7.92%)
Average number of basis functions per batch  ...     5.47 ( 4.88%)
Average number of large shells per batch     ...     1.93 (76.32%)
Average number of large basis fcns per batch ...     4.33 (79.27%)
Maximum spatial batch extension              ...  31.14, 31.14, 19.99 au
Average spatial batch extension              ...   0.98,  0.98,  0.74 au

Time for grid setup =    0.234 sec

--------------
SCF ITERATIONS
--------------
ITER       Energy         Delta-E        Max-DP      RMS-DP      [F,P]     Damp
               ***  Starting incremental Fock matrix formation  ***
  0   -294.0062386332   0.000000000000 0.00008314  0.00000273  0.0037129 0.7000
  1   -294.0062388663  -0.000000233029 0.00009215  0.00000272  0.0026072 0.7000
                               ***Turning on DIIS***
  2   -294.0062390285  -0.000000162222 0.00026962  0.00000777  0.0018282 0.0000
  3   -294.0062394184  -0.000000389898 0.00011129  0.00000360  0.0000395 0.0000
  4   -294.0062394333  -0.000000014947 0.00002600  0.00000095  0.0000337 0.0000
  5   -294.0062394387  -0.000000005372 0.00004711  0.00000130  0.0000115 0.0000
  6   -294.0062394410  -0.000000002281 0.00001277  0.00000038  0.0000044 0.0000
  7   -294.0062394415  -0.000000000524 0.00000496  0.00000014  0.0000025 0.0000
                            ***DIIS convergence achieved***

               *****************************************************
               *                     SUCCESS                       *
               *           SCF CONVERGED AFTER   8 CYCLES          *
               *****************************************************


Setting up the DFT-NL grid :

General Integration Accuracy     IntAcc      ...  4.340
Radial Grid Type                 RadialGrid  ... Gauss-Chebyshev
Angular Grid (max. acc.)         AngularGrid ... Lebedev-110
Angular grid pruning method      GridPruning ... 3 (G Style)
Weight generation scheme         WeightScheme... Becke
Basis function cutoff            BFCut       ...    1.0000e-11
Integration weight cutoff        WCut        ...    1.0000e-14
Grids for H and He will be reduced by one unit

# of grid points (after initial pruning)     ...   6516 (   0.0 sec)
# of grid points (after weights+screening)   ...   6484 (   0.0 sec)
nearest neighbour list constructed           ...    0.0 sec
Grid point re-assignment to atoms done       ...    0.0 sec
Grid point division into batches done        ...    0.0 sec
Reduced shell lists constructed in    0.0 sec

Total number of grid points                  ...     6484
Total number of batches                      ...      102
Average number of points per batch           ...       63
Average number of grid points per atom       ...     3242
Average number of shells per batch           ...     7.83 (24.48%)
Average number of basis functions per batch  ...    20.17 (18.01%)
Average number of large shells per batch     ...     7.17 (91.49%)
Average number of large basis fcns per batch ...    16.83 (83.47%)
Maximum spatial batch extension              ...  24.86, 37.49, 24.53 au
Average spatial batch extension              ...   1.14,  1.42,  1.07 au

Final grid set up in    0.0 sec

-------------------------------------------------------------------------------
                         DFT-NL dispersion correction                          
-------------------------------------------------------------------------------

SC Energy -294.006239442 
NL    Energy 0.146953769 
SC+NL Energy -293.859285672 
NL done in    0.1 sec
-------------------------------------------------------------------------------
Total Energy       :         -293.85928567 Eh           -7996.31769 eV
  Last Energy change         ...   -5.6332e-11  Tolerance :   1.0000e-08
  Last MAX-Density change    ...    2.2482e-06  Tolerance :   1.0000e-07
             **** THE GBW FILE WAS UPDATED (Ag02N0.gbw) ****
             **** DENSITY FILE WAS UPDATED (Ag02N0.scfp) ****
             **** ENERGY FILE WAS UPDATED (Ag02N0.en.tmp) ****
             **** THE GBW FILE WAS UPDATED (Ag02N0.gbw) ****
             **** DENSITY FILE WAS UPDATED (Ag02N0.scfp) ****
Total SCF time: 0 days 0 hours 0 min 2 sec 

-------------------------   --------------------
FINAL SINGLE POINT ENERGY      -293.859285672119
-------------------------   --------------------


----------------------------------------------------------------------------
                           ORCA NUMERICAL GRADIENT
                              (24-process run)
----------------------------------------------------------------------------

I state                        ... 1
J state                        ... 0
Number of atoms                ... 2
Derivative's order of accuracy ... 2
Central differences            ... used
Number of displacements        ... 12
Numerical increment            ... 5.000e-03 bohr
Translation invariance         ... used

The output will be reduced. Please look at the following files:
SCF program output             ... >Ag02N0.lastscf
Integral program output        ... >Ag02N0.lastint
Gradient program output        ... >Ag02N0.lastgrad


     Note:   There are more processes than displacements to do
     ===>:   Reducing number of processes to   3

             <<<Displacing   2/coordinate 3 (+)>>>
             <<<Displacing   2/coordinate 1 (+)>>>
             <<<Displacing   2/coordinate 2 (+)>>>
             <<<Displacing   2/coordinate 2 (-)>>>
             <<<Displacing   2/coordinate 1 (-)>>>
             <<<Displacing   2/coordinate 3 (-)>>>

------------------------------
CARTESIAN GRADIENT (NUMERICAL)
-------------------------------
   1   Ag  :   -0.000001488    0.000001140   -0.000064713
   2   Ag  :    0.000001488   -0.000001140    0.000064713

Norm of the cartesian gradient     ...    0.000091556
RMS gradient                       ...    0.000037378
MAX gradient                       ...    0.000064713

-------
TIMINGS
-------

Total numerical gradient time      ...       40.923 sec

------------------------------------------------------------------------------
                         ORCA GEOMETRY RELAXATION STEP
------------------------------------------------------------------------------

Reading the OPT-File                    .... done
Getting information on internals        .... done
Copying old internal coords+grads       .... done
Making the new internal coordinates     .... (new redundants).... done
Validating the new internal coordinates .... (new redundants).... done
Calculating the B-matrix                .... done
Calculating the G,G- and P matrices     .... done
Transforming gradient to internals      .... done
Projecting the internal gradient        .... done
Number of atoms                         ....   2
Number of internal coordinates          ....   1
Current Energy                          ....  -293.859285672 Eh
Current gradient norm                   ....     0.000091556 Eh/bohr
Maximum allowed component of the step   ....  0.300
Current trust radius                    ....  0.300
Updating the Hessian (BFGS)             .... done
Forming the augmented Hessian           .... done
Diagonalizing the augmented Hessian     .... done
Last element of RFO vector              ....  0.999999580
Lowest eigenvalues of augmented Hessian:
 -0.000000059
Length of the computed step             ....  0.000916322
The final length of the internal step   ....  0.000916322
Converting the step to cartesian space:
 Initial RMS(Int)=    0.0009163217
Transforming coordinates:
 Iter   0:  RMS(Cart)=    0.0002645193 RMS(Int)=    0.0009163217
 Iter   1:  RMS(Cart)=    0.0000000000 RMS(Int)=    0.0000000000
done
Storing new coordinates                 .... done

                                .--------------------.
          ----------------------|Geometry convergence|-------------------------
          Item                value                   Tolerance       Converged
          ---------------------------------------------------------------------
          Energy change      -0.0000030977            0.0000050000      YES
          RMS gradient        0.0000647130            0.0001000000      YES
          MAX gradient        0.0000647130            0.0003000000      YES
          RMS step            0.0009163217            0.0020000000      YES
          MAX step            0.0009163217            0.0040000000      YES
          ........................................................
          Max(Bonds)      0.0005      Max(Angles)    0.00
          Max(Dihed)        0.00      Max(Improp)    0.00
          ---------------------------------------------------------------------

                    ***********************HURRAY********************
                    ***        THE OPTIMIZATION HAS CONVERGED     ***
                    *************************************************


    ---------------------------------------------------------------------------
                         Redundant Internal Coordinates

                          --- Optimized Parameters ---  
                            (Angstroem and degrees)

        Definition                    OldVal   dE/dq     Step     FinalVal
    ----------------------------------------------------------------------------
     1. B(Ag  1,Ag  0)                2.5701 -0.000065  0.0005    2.5706   
    ----------------------------------------------------------------------------
                 *******************************************************
                 *** FINAL ENERGY EVALUATION AT THE STATIONARY POINT ***
                 ***               (AFTER    4 CYCLES)               ***
                 *******************************************************
---------------------------------
CARTESIAN COORDINATES (ANGSTROEM)
---------------------------------
  Ag     0.000000    0.000000    1.285295
  Ag     0.000000    0.000000   -1.285295

----------------------------
CARTESIAN COORDINATES (A.U.)
----------------------------
  NO LB      ZA    FRAG     MASS         X           Y           Z
   0 Ag   19.0000*   0   107.870    0.000000    0.000000    2.428855
   1 Ag   19.0000*   0   107.870    0.000000    0.000000   -2.428855
* core charge reduced due to ECP

--------------------------------
INTERNAL COORDINATES (ANGSTROEM)
--------------------------------
 Ag     0   0   0     0.000000000000     0.00000000     0.00000000
 Ag     1   0   0     2.570589666018     0.00000000     0.00000000

---------------------------
INTERNAL COORDINATES (A.U.)
---------------------------
 Ag     0   0   0     0.000000000000     0.00000000     0.00000000
 Ag     1   0   0     4.857710471462     0.00000000     0.00000000

---------------------
BASIS SET INFORMATION
---------------------
There are 1 groups of distinct atoms

 Group   1 Type Ag  : 7s7p6d2f1g contracted to 6s4p3d2f1g pattern {211111/4111/411/11/1}

Atom   0Ag   basis set group =>   1
Atom   1Ag   basis set group =>   1
----------------------------------
AUXILIARY/JK BASIS SET INFORMATION
----------------------------------
There are 1 groups of distinct atoms

 Group   1 Type Ag  : 13s12p10d9f6g3h2i contracted to 11s10p9d8f6g3h2i pattern {31111111111/3111111111/211111111/21111111/111111/111/11}

Atom   0Ag   basis set group =>   1
Atom   1Ag   basis set group =>   1
-------------------------
ECP PARAMETER INFORMATION
-------------------------

 Group 1, Type Ag ECP Def2-ECP (replacing 28 core electrons, lmax=3)

Atom   0Ag   ECP group =>   1
Atom   1Ag   ECP group =>   1



           ************************************************************
           *        Program running with 24 parallel MPI-processes    *
           *              working on a common directory               *
           ************************************************************
[...]
  42   0.0000       0.663680        18.0596 
  43   0.0000       0.791100        21.5269 
  44   0.0000       1.545122        42.0449 
  45   0.0000       1.670300        45.4512 
  46   0.0000       1.670300        45.4512 
  47   0.0000       1.711424        46.5702 
  48   0.0000       1.711433        46.5705 
  49   0.0000       1.725237        46.9461 
  50   0.0000       1.725237        46.9461 
  51   0.0000       1.726317        46.9755 
  52   0.0000       1.726317        46.9755 
  53   0.0000       1.727091        46.9965 
  54   0.0000       1.727091        46.9965 
  55   0.0000       1.732177        47.1349 
  56   0.0000       1.732177        47.1349 
  57   0.0000       1.738083        47.2957 
  58   0.0000       1.738090        47.2958 
  59   0.0000       1.748613        47.5822 
  60   0.0000       1.833975        49.9050 
  61   0.0000       1.849086        50.3162 
  62   0.0000       1.849086        50.3162 
  63   0.0000       1.874088        50.9965 
  64   0.0000       2.049912        55.7809 
  65   0.0000       2.157425        58.7065 
  66   0.0000       2.157437        58.7068 
  67   0.0000       2.180618        59.3376 
  68   0.0000       2.180618        59.3376 
  69   0.0000       2.192971        59.6738 
  70   0.0000       2.192982        59.6741 
  71   0.0000       2.254332        61.3435 
  72   0.0000       2.254332        61.3435 
  73   0.0000       2.262006        61.5523 
  74   0.0000       2.411382        65.6170 
  75   0.0000       2.458757        66.9062 
  76   0.0000       4.952491       134.7641 
  77   0.0000       4.954322       134.8140 
  78   0.0000       4.954322       134.8140 
  79   0.0000       4.988874       135.7542 
  80   0.0000       4.989160       135.7620 
  81   0.0000       4.998810       136.0245 
  82   0.0000       4.998810       136.0245 
  83   0.0000       5.000280       136.0645 
  84   0.0000       5.000280       136.0645 
  85   0.0000       5.010259       136.3361 
  86   0.0000       5.010546       136.3439 
  87   0.0000       5.085158       138.3742 
  88   0.0000       5.085158       138.3742 
  89   0.0000       5.271141       143.4350 
  90   0.0000       5.720957       155.6751 
  91   0.0000       5.720957       155.6751 
  92   0.0000       5.722468       155.7163 
  93   0.0000       5.722672       155.7218 
  94   0.0000       5.722769       155.7245 
  95   0.0000       5.723075       155.7328 
  96   0.0000       5.723168       155.7353 
  97   0.0000       5.724443       155.7700 
  98   0.0000       5.724443       155.7700 
  99   0.0000       5.724446       155.7701 
 100   0.0000       5.724446       155.7701 
 101   0.0000       5.724705       155.7771 
 102   0.0000       5.724705       155.7771 
 103   0.0000       5.726004       155.8125 
 104   0.0000       5.726007       155.8126 
 105   0.0000       5.726511       155.8263 
 106   0.0000       5.726511       155.8263 
 107   0.0000       5.735835       156.0800 
 108   0.0000      33.513085       911.9374 
 109   0.0000      33.757328       918.5836 
 110   0.0000     110.844889      3016.2428 
 111   0.0000     110.923833      3018.3910 

                    ********************************
                    * MULLIKEN POPULATION ANALYSIS *
                    ********************************

-----------------------
MULLIKEN ATOMIC CHARGES
-----------------------
   0 Ag:   -0.000001
   1 Ag:    0.000001
Sum of atomic charges:    0.0000000

--------------------------------
MULLIKEN REDUCED ORBITAL CHARGES
--------------------------------
  0 Ags       :     2.963320  s :     2.963320
      pz      :     2.056752  p :     6.068135
      px      :     2.005691
      py      :     2.005691
      dz2     :     1.979345  d :     9.967255
      dxz     :     1.994020
      dyz     :     1.994020
      dx2y2   :     1.999935
      dxy     :     1.999935
      f0      :     0.000578  f :     0.001277
      f+1     :     0.000285
      f-1     :     0.000285
      f+2     :     0.000064
      f-2     :     0.000064
      f+3     :     0.000000
      f-3     :     0.000000
      g0      :     0.000007  g :     0.000015
      g+1     :     0.000004
      g-1     :     0.000004
      g+2     :     0.000000
      g-2     :     0.000000
      g+3     :     0.000000
      g-3     :     0.000000
      g+4     :     0.000000
      g-4     :     0.000000
  1 Ags       :     2.963318  s :     2.963318
      pz      :     2.056751  p :     6.068134
      px      :     2.005691
      py      :     2.005691
      dz2     :     1.979345  d :     9.967255
      dxz     :     1.994020
      dyz     :     1.994020
      dx2y2   :     1.999935
      dxy     :     1.999935
      f0      :     0.000578  f :     0.001277
      f+1     :     0.000285
      f-1     :     0.000285
      f+2     :     0.000064
      f-2     :     0.000064
      f+3     :     0.000000
      f-3     :     0.000000
      g0      :     0.000007  g :     0.000015
      g+1     :     0.000004
      g-1     :     0.000004
      g+2     :     0.000000
      g-2     :     0.000000
      g+3     :     0.000000
      g-3     :     0.000000
      g+4     :     0.000000
      g-4     :     0.000000


                     *******************************
                     * LOEWDIN POPULATION ANALYSIS *
                     *******************************

----------------------
LOEWDIN ATOMIC CHARGES
----------------------
   0 Ag:   -0.000000
   1 Ag:    0.000000

-------------------------------
LOEWDIN REDUCED ORBITAL CHARGES
-------------------------------
  0 Ags       :     2.894888  s :     2.894888
      pz      :     2.110259  p :     6.126082
      px      :     2.007912
      py      :     2.007912
      dz2     :     1.994036  d :     9.977201
      dxz     :     1.991655
      dyz     :     1.991655
      dx2y2   :     1.999927
      dxy     :     1.999927
      f0      :     0.000809  f :     0.001809
      f+1     :     0.000428
      f-1     :     0.000428
      f+2     :     0.000072
      f-2     :     0.000072
      f+3     :     0.000000
      f-3     :     0.000000
      g0      :     0.000009  g :     0.000020
      g+1     :     0.000005
      g-1     :     0.000005
      g+2     :     0.000001
      g-2     :     0.000001
      g+3     :     0.000000
      g-3     :     0.000000
      g+4     :     0.000000
      g-4     :     0.000000
  1 Ags       :     2.894888  s :     2.894888
      pz      :     2.110259  p :     6.126082
      px      :     2.007912
      py      :     2.007912
      dz2     :     1.994036  d :     9.977201
      dxz     :     1.991655
      dyz     :     1.991655
      dx2y2   :     1.999927
      dxy     :     1.999927
      f0      :     0.000809  f :     0.001809
      f+1     :     0.000428
      f-1     :     0.000428
      f+2     :     0.000072
      f-2     :     0.000072
      f+3     :     0.000000
      f-3     :     0.000000
      g0      :     0.000009  g :     0.000020
      g+1     :     0.000005
      g-1     :     0.000005
      g+2     :     0.000001
      g-2     :     0.000001
      g+3     :     0.000000
      g-3     :     0.000000
      g+4     :     0.000000
      g-4     :     0.000000


                      *****************************
                      * MAYER POPULATION ANALYSIS *
                      *****************************

  NA   - Mulliken gross atomic population
  ZA   - Total nuclear charge
  QA   - Mulliken gross atomic charge
  VA   - Mayer's total valence
  BVA  - Mayer's bonded valence
  FA   - Mayer's free valence

  ATOM       NA         ZA         QA         VA         BVA        FA
  0 Ag    19.0000    19.0000    -0.0000     1.0262     1.0262     0.0000
  1 Ag    19.0000    19.0000     0.0000     1.0262     1.0262    -0.0000

  Mayer bond orders larger than 0.100000
B(  0-Ag,  1-Ag) :   1.0262 

-------
TIMINGS
-------

Total SCF time: 0 days 0 hours 0 min 2 sec 

Total time                  ....       2.396 sec
Sum of individual times     ....       2.117 sec  ( 88.4%)

Fock matrix formation       ....       1.839 sec  ( 76.8%)
  XC integration            ....       0.169 sec  (  9.2% of F)
    Basis function eval.    ....       0.013 sec  (  7.5% of XC)
    Density eval.           ....       0.016 sec  (  9.3% of XC)
    XC-Functional eval.     ....       0.009 sec  (  5.3% of XC)
    XC-Potential eval.      ....       0.019 sec  ( 11.0% of XC)
Diagonalization             ....       0.011 sec  (  0.5%)
Density matrix formation    ....       0.002 sec  (  0.1%)
Population analysis         ....       0.004 sec  (  0.2%)
Initial guess               ....       0.006 sec  (  0.2%)
Orbital Transformation      ....       0.000 sec  (  0.0%)
Orbital Orthonormalization  ....       0.003 sec  (  0.1%)
DIIS solution               ....       0.004 sec  (  0.2%)
Grid generation             ....       0.250 sec  ( 10.4%)

-------------------------   --------------------
FINAL SINGLE POINT ENERGY      -293.859285699752
-------------------------   --------------------

                                *** OPTIMIZATION RUN DONE ***

                            ***************************************
                            *     ORCA property calculations      *
                            ***************************************

                                    ---------------------
                                    Active property flags
                                    ---------------------
   (+) Dipole Moment


------------------------------------------------------------------------------
                       ORCA ELECTRIC PROPERTIES CALCULATION
------------------------------------------------------------------------------

Dipole Moment Calculation                       ... on
Quadrupole Moment Calculation                   ... off
Polarizability Calculation                      ... off
GBWName                                         ... Ag02N0.gbw
Electron density file                           ... Ag02N0.scfp
The origin for moment calculation is the CENTER OF MASS  = ( 0.000000,  0.000000  0.000000)

-------------
DIPOLE MOMENT
-------------
                                X             Y             Z
Electronic contribution:      0.00000       0.00000       0.00000
Nuclear contribution   :      0.00000       0.00000       0.00000
                        -----------------------------------------
Total Dipole Moment    :      0.00000       0.00000       0.00000
                        -----------------------------------------
Magnitude (a.u.)       :      0.00000
Magnitude (Debye)      :      0.00000



--------------------
Rotational spectrum 
--------------------
 
Rotational constants in cm-1:     0.000000     0.047300     0.047300 
Rotational constants in MHz :     0.000000  1418.016898  1418.016898 

 Dipole components along the rotational axes: 
x,y,z [a.u.] :     0.000000     0.000000     0.000000 
x,y,z [Debye]:     0.000000     0.000000     0.000000 

 

----------------------------------------------------------------------------
                           ORCA NUMERICAL FREQUENCIES
                              (24-process run)
----------------------------------------------------------------------------

Number of atoms                ... 2
Central differences            ... used
Number of displacements        ... 12
Numerical increment            ... 5.000e-03 bohr
IR-spectrum generation         ... on
Raman-spectrum generation      ... off
Surface Crossing Hessian       ... off

 WARNING: There are more processes than displacements to do
  ====> : Reducing number of processes to   6

The output will be reduced. Please look at the following files:
SCF program output             ... >Ag02N0.lastscf
Integral program output        ... >Ag02N0.lastint
Gradient program output        ... >Ag02N0.lastgrad
Dipole moment program output   ... >Ag02N0.lastmom
AutoCI program output          ... >Ag02N0.lastautoci


         <<< Energy and Gradient at the input geometry >>>

        <<< Energy and Gradient at displaced geometries >>>
             <<<Displacing   1/coordinate 2 (+)>>>
             <<<Displacing   2/coordinate 2 (+)>>>
             <<<Displacing   1/coordinate 1 (+)>>>
             <<<Displacing   2/coordinate 1 (+)>>>
             <<<Displacing   2/coordinate 3 (+)>>>
             <<<Displacing   1/coordinate 3 (+)>>>
             <<<Displacing   2/coordinate 1 (-)>>>
             <<<Displacing   1/coordinate 1 (-)>>>
             <<<Displacing   1/coordinate 2 (-)>>>
             <<<Displacing   2/coordinate 2 (-)>>>
             <<<Displacing   1/coordinate 3 (-)>>>
             <<<Displacing   2/coordinate 3 (-)>>>
Warning: T+R mode no 5 is zero 

-----------------------
VIBRATIONAL FREQUENCIES
-----------------------

Scaling factor for frequencies =  1.000000000 (already applied!)

   0:         0.00 cm**-1
   1:         0.00 cm**-1
   2:         0.00 cm**-1
   3:         0.00 cm**-1
   4:         0.00 cm**-1
   5:       184.77 cm**-1


------------
NORMAL MODES
------------

These modes are the cartesian displacements weighted by the diagonal matrix
M(i,i)=1/sqrt(m[i]) where m[i] is the mass of the displaced atom
Thus, these vectors are normalized but *not* orthogonal

                  0          1          2          3          4          5    
      0       0.000000   0.000000   0.000000   0.000000   0.000000   0.000000
      1       0.000000   0.000000   0.000000   0.000000   0.000000   0.000000
      2       0.000000   0.000000   0.000000   0.000000   0.000000   0.707107
      3       0.000000   0.000000   0.000000   0.000000   0.000000   0.000000
      4       0.000000   0.000000   0.000000   0.000000   0.000000   0.000000
      5       0.000000   0.000000   0.000000   0.000000   0.000000  -0.707107


-----------
IR SPECTRUM  
-----------

 Mode    freq (cm**-1)   T**2         TX         TY         TZ
-------------------------------------------------------------------
   5:       184.77    0.000000  (  0.000017   0.000034  -0.000001)

The first frequency considered to be a vibration is 5
The total number of vibrations considered is 1


--------------------------
THERMOCHEMISTRY AT 298.15K
--------------------------

Temperature         ... 298.15 K
Pressure            ... 1.00 atm
Total Mass          ... 215.74 AMU
The molecule is recognized as being linear

Throughout the following assumptions are being made:
  (1) The electronic state is orbitally nondegenerate
  (2) There are no thermally accessible electronically excited states
  (3) Hindered rotations indicated by low frequency modes are not
      treated as such but are treated as vibrations and this may
      cause some error
  (4) All equations used are the standard statistical mechanics
      equations for an ideal gas
  (5) All vibrations are strictly harmonic

freq.     184.77  E(vib)   ...       0.37 

------------
INNER ENERGY
------------

The inner energy is: U= E(el) + E(ZPE) + E(vib) + E(rot) + E(trans)
    E(el)   - is the total energy from the electronic structure calculation
              = E(kin-el) + E(nuc-el) + E(el-el) + E(nuc-nuc)
    E(ZPE)  - the the zero temperature vibrational energy from the frequency calculation
    E(vib)  - the the finite temperature correction to E(ZPE) due to population
              of excited vibrational states
    E(rot)  - is the rotational thermal energy
    E(trans)- is the translational thermal energy

Summary of contributions to the inner energy U:
Electronic energy                ...   -293.85928570 Eh
Zero point energy                ...      0.00042093 Eh       0.26 kcal/mol
Thermal vibrational correction   ...      0.00058501 Eh       0.37 kcal/mol
Thermal rotational correction    ...      0.00094418 Eh       0.59 kcal/mol
Thermal translational correction ...      0.00141627 Eh       0.89 kcal/mol
-----------------------------------------------------------------------
Total thermal energy                   -293.85591930 Eh


Summary of corrections to the electronic energy:
(perhaps to be used in another calculation)
Total thermal correction                  0.00294547 Eh       1.85 kcal/mol
Non-thermal (ZPE) correction              0.00042093 Eh       0.26 kcal/mol
-----------------------------------------------------------------------
Total correction                          0.00336640 Eh       2.11 kcal/mol


--------
ENTHALPY
--------

The enthalpy is H = U + kB*T
                kB is Boltzmann's constant
Total free energy                 ...   -293.85591930 Eh 
Thermal Enthalpy correction       ...      0.00094421 Eh       0.59 kcal/mol
-----------------------------------------------------------------------
Total Enthalpy                    ...   -293.85497509 Eh


Note: Rotational entropy computed according to Herzberg 
Infrared and Raman Spectra, Chapter V,1, Van Nostrand Reinhold, 1945 
Point Group:  Dinfh, Symmetry Number:   2  
Rotational constants in cm-1:     0.000000     0.047300     0.047300 

Vibrational entropy computed according to the QRRHO of S. Grimme
Chem.Eur.J. 2012 18 9955


-------
ENTROPY
-------

The entropy contributions are T*S = T*(S(el)+S(vib)+S(rot)+S(trans))
     S(el)   - electronic entropy
     S(vib)  - vibrational entropy
     S(rot)  - rotational entropy
     S(trans)- translational entropy
The entropies will be listed as mutliplied by the temperature to get
units of energy

Electronic entropy                ...      0.00000000 Eh      0.00 kcal/mol
Vibrational entropy               ...      0.00108187 Eh      0.68 kcal/mol
Rotational entropy                ...      0.00820673 Eh      5.15 kcal/mol
Translational entropy             ...      0.01996022 Eh     12.53 kcal/mol
-----------------------------------------------------------------------
Final entropy term                ...      0.02924883 Eh     18.35 kcal/mol

In case the symmetry of your molecule has not been determined correctly
or in case you have a reason to use a different symmetry number we print 
out the resulting rotational entropy values for sn=1,12 :
 --------------------------------------------------------
|  sn= 1 | S(rot)=             -inf Eh      -inf kcal/mol|
|  sn= 2 | S(rot)=             -inf Eh      -inf kcal/mol|
|  sn= 3 | S(rot)=             -inf Eh      -inf kcal/mol|
|  sn= 4 | S(rot)=             -inf Eh      -inf kcal/mol|
|  sn= 5 | S(rot)=             -inf Eh      -inf kcal/mol|
|  sn= 6 | S(rot)=             -inf Eh      -inf kcal/mol|
|  sn= 7 | S(rot)=             -inf Eh      -inf kcal/mol|
|  sn= 8 | S(rot)=             -inf Eh      -inf kcal/mol|
|  sn= 9 | S(rot)=             -inf Eh      -inf kcal/mol|
|  sn=10 | S(rot)=             -inf Eh      -inf kcal/mol|
|  sn=11 | S(rot)=             -inf Eh      -inf kcal/mol|
|  sn=12 | S(rot)=             -inf Eh      -inf kcal/mol|
 --------------------------------------------------------


-------------------
GIBBS FREE ENERGY
-------------------

The Gibbs free energy is G = H - T*S

Total enthalpy                    ...   -293.85497509 Eh 
Total entropy correction          ...     -0.02924883 Eh    -18.35 kcal/mol
-----------------------------------------------------------------------
Final Gibbs free energy         ...   -293.88422392 Eh

For completeness - the Gibbs free energy minus the electronic energy
G-E(el)                           ...     -0.02493822 Eh    -15.65 kcal/mol


Total Time for Numerical Frequencies  :       243.981 sec

Timings for individual modules:

Sum of individual times         ...      232.130 sec (=   3.869 min)
GTO integral calculation        ...        4.632 sec (=   0.077 min)   2.0 %
SCF iterations                  ...       20.517 sec (=   0.342 min)   8.8 %
SCF Gradient evaluation         ...      206.829 sec (=   3.447 min)  89.1 %
Geometry relaxation             ...        0.152 sec (=   0.003 min)   0.1 %
                             ****ORCA TERMINATED NORMALLY****
TOTAL RUN TIME: 0 days 0 hours 7 minutes 13 seconds 654 msec
