
                                 *****************
                                 * O   R   C   A *
                                 *****************

           --- An Ab Initio, DFT and Semiempirical electronic structure package ---

                  #######################################################
                  #                        -***-                        #
                  #          Department of theory and spectroscopy      #
                  #               Directorship: Frank Neese             #
                  #        Max Planck Institute fuer Kohlenforschung    #
                  #                Kaiser Wilhelm Platz 1               #
                  #                 D-45470 Muelheim/Ruhr               #
                  #                      Germany                        #
                  #                                                     #
                  #                  All rights reserved                #
                  #                        -***-                        #
                  #######################################################


                         Program Version 4.2.0 -  RELEASE  -


 With contributions from (in alphabetic order):
   Daniel Aravena         : Magnetic Suceptibility
   Michael Atanasov       : Ab Initio Ligand Field Theory (pilot matlab implementation)
   Alexander A. Auer      : GIAO ZORA, VPT2
   Ute Becker             : Parallelization
   Giovanni Bistoni       : ED, misc. LED, open-shell LED, HFLED
   Martin Brehm           : Molecular dynamics
   Dmytro Bykov           : SCF Hessian
   Vijay G. Chilkuri      : MRCI spin determinant printing, contributions to CSF-ICE
   Dipayan Datta          : RHF DLPNO-CCSD density
   Achintya Kumar Dutta   : EOM-CC, STEOM-CC
   Dmitry Ganyushin       : Spin-Orbit,Spin-Spin,Magnetic field MRCI
   Miquel Garcia          : C-PCM Hessian, Gaussian charge scheme
   Yang Guo               : DLPNO-NEVPT2, CIM, IAO-localization
   Andreas Hansen         : Spin unrestricted coupled pair/coupled cluster methods
   Benjamin Helmich-Paris : CASSCF linear response (MC-RPA)
   Lee Huntington         : MR-EOM, pCC
   Robert Izsak           : Overlap fitted RIJCOSX, COSX-SCS-MP3, EOM
   Christian Kollmar      : KDIIS, OOCD, Brueckner-CCSD(T), CCSD density
   Simone Kossmann        : Meta GGA functionals, TD-DFT gradient, OOMP2, MP2 Hessian
   Martin Krupicka        : AUTO-CI
   Lucas Lang             : DCDCAS
   Dagmar Lenk            : GEPOL surface, SMD
   Dimitrios Liakos       : Extrapolation schemes; Compound Job, initial MDCI parallelization
   Dimitrios Manganas     : Further ROCIS development; embedding schemes
   Dimitrios Pantazis     : SARC Basis sets
   Taras Petrenko         : DFT Hessian,TD-DFT gradient, ASA, ECA, R-Raman, ABS, FL, XAS/XES, NRVS
   Peter Pinski           : DLPNO-MP2, DLPNO-MP2 Gradient
   Christoph Reimann      : Effective Core Potentials
   Marius Retegan         : Local ZFS, SOC
   Christoph Riplinger    : Optimizer, TS searches, QM/MM, DLPNO-CCSD(T), (RO)-DLPNO pert. Triples
   Tobias Risthaus        : Range-separated hybrids, TD-DFT gradient, RPA, STAB
   Michael Roemelt        : Original ROCIS implementation
   Masaaki Saitow         : Open-shell DLPNO-CCSD energy and density
   Barbara Sandhoefer     : DKH picture change effects
   Avijit Sen             : IP-ROCIS
   Kantharuban Sivalingam : CASSCF convergence, NEVPT2, FIC-MRCI
   Bernardo de Souza      : ESD, SOC TD-DFT
   Georgi Stoychev        : AutoAux, RI-MP2 NMR
   Willem Van den Heuvel  : Paramagnetic NMR
   Boris Wezisla          : Elementary symmetry handling
   Frank Wennmohs         : Technical directorship


 We gratefully acknowledge several colleagues who have allowed us to
 interface, adapt or use parts of their codes:
   Stefan Grimme, W. Hujo, H. Kruse,             : VdW corrections, initial TS optimization,
                  C. Bannwarth                     DFT functionals, gCP, sTDA/sTD-DF
   Ed Valeev, F. Pavosevic, A. Kumar             : LibInt (2-el integral package), F12 methods
   Garnet Chan, S. Sharma, J. Yang, R. Olivares  : DMRG
   Ulf Ekstrom                                   : XCFun DFT Library
   Mihaly Kallay                                 : mrcc  (arbitrary order and MRCC methods)
   Andreas Klamt, Michael Diedenhofen            : otool_cosmo (COSMO solvation model)
   Jiri Pittner, Ondrej Demel                    : Mk-CCSD
   Frank Weinhold                                : gennbo (NPA and NBO analysis)
   Christopher J. Cramer and Donald G. Truhlar   : smd solvation model
   Lars Goerigk                                  : TD-DFT with DH, B97 family of functionals
   V. Asgeirsson, H. Jonsson                     : NEB implementation
   FAccTs GmbH                                   : IRC, NEB, NEB-TS, Multilevel, MM, QM/MM, CI optimization
   S Lehtola, MJT Oliveira, MAL Marques          : LibXC Library


 Your calculation uses the libint2 library for the computation of 2-el integrals
 For citations please refer to: http://libint.valeyev.net

 Your ORCA version has been built with support for libXC version: 4.2.3
 For citations please refer to: https://tddft.org/programs/libxc/

 This ORCA versions uses:
   CBLAS   interface :  Fast vector & matrix operations
   LAPACKE interface :  Fast linear algebra routines
   SCALAPACK package :  Parallel linear algebra routines


Your calculation utilizes the DFT-NL dispersion correction.
Cite in your paper:
Vydrov, O. A.; Van Voorhis, T. J. Chem. Phys. 2010, 133, 244103
Hujo, W.; Grimme, S. J. Chem. Theory Comput. 2011, 7, 3866 
   

----- Orbital basis set information -----
Your calculation utilizes the basis: def2-TZVPPD
   F. Weigend and R. Ahlrichs, Phys. Chem. Chem. Phys. 7, 3297 (2005).
   D. Rappoport and F. Furche, J. Chem. Phys. 133 134105 (2010).

----- AuxJK basis set information -----
Your calculation utilizes the auxiliary basis: def2/JK
   H-Ba, Hf-Rn: F. Weigend, J. Comput. Chem. 29, 167 (2008).

cite the ECPs for Au [Def2-ECP] as follows:
Ce-Yb(ecp-28): M. Dolg, H. Stoll, H.Preuss, J. Chem. Phys., 1989, 90, 1730-1734.
Y-Cd(ecp-28), Hf-Hg(ecp-46): D. Andrae,U. Haeussermann, M. Dolg, H. Stoll, H. Preuss, Theor. Chim. Acta, 1990, 77, 123-141.
In-Sb(ecp-28), Tl-Bi(ecp-46): B. Metz, H. Stoll, M. Dolg, J. Chem. Phys., 2000, 113, 2563-2569.
Te-Xe(ecp-28), Po-Rn(ecp-46): K. A. Peterson, D. Figgen, E. Goll, H. Stoll, M. Dolg, J. Chem. Phys., 2003, 119, 11113-11123.
Rb(ecp-28), Cs(ecp-46): T. Leininger, A. Nicklass, W. Kuechle, H. Stoll, M. Dolg, A. Bergner, Chem. Phys. Lett., 1996, 255, 274-280.
Sr(ecp-28), Ba(ecp-46): M. Kaupp, P. V. Schleyer, H. Stoll and H. Preuss, J. Chem. Phys., 1991, 94, 1360-1366.
La(ecp-46): M. Dolg, H. Stoll, A. Savin, H. Preuss, Theor. Chim. Acta, 1989, 75, 173-194.
Lu(ecp-28): X. Cao, M. Dolg, J. Chem. Phys., 2001, 115, 7348-7355.

ECP parameters for Au [Def2-ECP] have been obtained from:
TURBOMOLE (7.0.2)

================================================================================
                                        WARNINGS
                       Please study these warnings very carefully!
================================================================================


WARNING: Geometry Optimization
  ===> : Switching off AutoStart
         For restart on a previous wavefunction, please use MOREAD

INFO   : the flag for use of LIBINT has been found!

================================================================================
                                       INPUT FILE
================================================================================
NAME = Au01N0_H.in
|  1> #
|  2> # Au01N0_H wB97M-V/Def2-TZVPPD
|  3> #
|  4> ! wb97m-v def2-tzvppd def2/jk grid4 nofinalgrid opt xyzfile numfreq numgrad
|  5> 
|  6> *xyz 0 1
|  7> Au       0.000000    0.000000    0.019034 
|  8> H        0.000000    0.000000   -1.503691 
|  9> *
| 10> 
| 11> %maxcore 5000
| 12> 
| 13> %pal
| 14> nprocs = 24
| 15> end
| 16> 
| 17> 
| 18>                          ****END OF INPUT****
================================================================================

                       *****************************
                       * Geometry Optimization Run *
                       *****************************

Geometry optimization settings:
Update method            Update   .... BFGS
Choice of coordinates    CoordSys .... Z-matrix Internals
Initial Hessian          InHess   .... Almoef's Model

Convergence Tolerances:
Energy Change            TolE     ....  5.0000e-06 Eh
Max. Gradient            TolMAXG  ....  3.0000e-04 Eh/bohr
RMS Gradient             TolRMSG  ....  1.0000e-04 Eh/bohr
Max. Displacement        TolMAXD  ....  4.0000e-03 bohr
RMS Displacement         TolRMSD  ....  2.0000e-03 bohr
Strict Convergence                ....  False
------------------------------------------------------------------------------
                        ORCA OPTIMIZATION COORDINATE SETUP
------------------------------------------------------------------------------

The optimization will be done in new redundant internal coordinates
Making redundant internal coordinates   ...  (new redundants) done
Evaluating the initial hessian          ...  (Almloef) done
Evaluating the coordinates              ...  done
Calculating the B-matrix                .... done
Calculating the G-matrix                .... done
Diagonalizing the G-matrix              .... done
The first mode is                       ....    0
The number of degrees of freedom        ....    1

    -----------------------------------------------------------------
                    Redundant Internal Coordinates


    -----------------------------------------------------------------
         Definition                    Initial Value    Approx d2E/dq
    -----------------------------------------------------------------
      1. B(H   1,Au  0)                  1.5227         0.102242   
    -----------------------------------------------------------------

Number of atoms                         .... 2
Number of degrees of freedom            .... 1

         *************************************************************
         *                GEOMETRY OPTIMIZATION CYCLE   1            *
         *************************************************************
---------------------------------
CARTESIAN COORDINATES (ANGSTROEM)
---------------------------------
  Au     0.000000    0.000000    0.019034
  H      0.000000    0.000000   -1.503691

----------------------------
CARTESIAN COORDINATES (A.U.)
----------------------------
  NO LB      ZA    FRAG     MASS         X           Y           Z
   0 Au   19.0000*   0   196.966    0.000000    0.000000    0.035969
   1 H     1.0000    0     1.008    0.000000    0.000000   -2.841564
* core charge reduced due to ECP

--------------------------------
INTERNAL COORDINATES (ANGSTROEM)
--------------------------------
 Au     0   0   0     0.000000000000     0.00000000     0.00000000
 H      1   0   0     1.522725000000     0.00000000     0.00000000

---------------------------
INTERNAL COORDINATES (A.U.)
---------------------------
 Au     0   0   0     0.000000000000     0.00000000     0.00000000
 H      1   0   0     2.877533227275     0.00000000     0.00000000

---------------------
BASIS SET INFORMATION
---------------------
There are 2 groups of distinct atoms

 Group   1 Type Au  : 8s8p6d2f1g contracted to 6s5p3d2f1g pattern {311111/41111/411/11/1}
 Group   2 Type H   : 5s3p1d contracted to 3s3p1d pattern {311/111/1}

Atom   0Au   basis set group =>   1
Atom   1H    basis set group =>   2
----------------------------------
AUXILIARY/JK BASIS SET INFORMATION
----------------------------------
There are 2 groups of distinct atoms

 Group   1 Type Au  : 13s12p11d9f5g3h2i contracted to 13s11p10d8f4g3h2i pattern {1111111111111/21111111111/2111111111/21111111/2111/111/11}
 Group   2 Type H   : 4s2p2d contracted to 2s2p2d pattern {31/11/11}

Atom   0Au   basis set group =>   1
Atom   1H    basis set group =>   2
-------------------------
ECP PARAMETER INFORMATION
-------------------------

 Group 1, Type Au ECP Def2-ECP (replacing 60 core electrons, lmax=3)

Atom   0Au   ECP group =>   1



           ************************************************************
           *        Program running with 24 parallel MPI-processes    *
           *              working on a common directory               *
           ************************************************************
------------------------------------------------------------------------------
                           ORCA GTO INTEGRAL CALCULATION
------------------------------------------------------------------------------

                         BASIS SET STATISTICS AND STARTUP INFO

 # of primitive gaussian shells          ...   34
 # of primitive gaussian functions       ...  104
 # of contracted shells                  ...   24
 # of contracted basis functions         ...   76
 Highest angular momentum                ...    4
 Maximum contraction depth               ...    4
 Integral package used                   ... LIBINT
 Integral threshhold            Thresh   ...  2.500e-11
 Primitive cut-off              TCut     ...  2.500e-12


------------------------------ INTEGRAL EVALUATION ----------------------------


 * One electron integrals 

   ECP integrals                         ... done
 Pre-screening matrix                    ... done
 Shell pair data                         ... done (   0.000 sec)



           ************************************************************
           *        Program running with 24 parallel MPI-processes    *
           *              working on a common directory               *
           ************************************************************
-------------------------------------------------------------------------------
                                 ORCA SCF
-------------------------------------------------------------------------------

------------
SCF SETTINGS
------------
Hamiltonian:
 Density Functional     Method          .... DFT(GTOs)
 Exchange Functional    Exchange        .... WB97M-V
 Correlation Functional Correlation     .... WB97M-V
 Gradients option       PostSCFGGA      .... off
 Hybrid DFT is turned on
   Fraction HF Exchange ScalHFX         ....  0.150000
   Scaling of DF-GGA-X  ScalDFX         ....  0.000000
   Scaling of DF-GGA-C  ScalDFC         ....  1.000000
   Scaling of DF-LDA-C  ScalLDAC        ....  1.000000
   Perturbative correction              ....  0.000000
   Density functional embedding theory  .... OFF
 Long-range corrected/Screened/Range-Separated Hybrid DFT is turned on
   Amount of maximum screened exact exchange              ....  0.850000
   Range separation parameter mu (erf(mu*r12)/r12)        ....  0.300000
   NL short-range parameter             ....  6.000000
   NL long-range parameter              ....  0.010000


General Settings:
 Integral files         IntName         .... Au01N0_H
 Hartree-Fock type      HFTyp           .... RHF
 Total Charge           Charge          ....    0
 Multiplicity           Mult            ....    1
 Number of Electrons    NEL             ....   20
 Basis Dimension        Dim             ....   76
 Nuclear Repulsion      ENuc            ....      6.6028777079 Eh

Convergence Acceleration:
 DIIS                   CNVDIIS         .... on
   Start iteration      DIISMaxIt       ....    12
   Startup error        DIISStart       ....  0.200000
   # of expansion vecs  DIISMaxEq       ....     5
   Bias factor          DIISBfac        ....   1.050
   Max. coefficient     DIISMaxC        ....  10.000
 Newton-Raphson         CNVNR           .... off
 SOSCF                  CNVSOSCF        .... off
 Level Shifting         CNVShift        .... on
   Level shift para.    LevelShift      ....    0.2500
   Turn off err/grad.   ShiftErr        ....    0.0010
 Zerner damping         CNVZerner       .... off
 Static damping         CNVDamp         .... on
   Fraction old density DampFac         ....    0.7000
   Max. Damping (<1)    DampMax         ....    0.9800
   Min. Damping (>=0)   DampMin         ....    0.0000
   Turn off err/grad.   DampErr         ....    0.1000
 Fernandez-Rico         CNVRico         .... off

SCF Procedure:
 Maximum # iterations   MaxIter         ....   125
 SCF integral mode      SCFMode         .... Direct
   Integral package                     .... LIBINT
 Reset frequency        DirectResetFreq ....    20
 Integral Threshold     Thresh          ....  2.500e-11 Eh
 Primitive CutOff       TCut            ....  2.500e-12 Eh

Convergence Tolerance:
 Convergence Check Mode ConvCheckMode   .... Total+1el-Energy
 Convergence forced     ConvForced      .... 0
 Energy Change          TolE            ....  1.000e-08 Eh
 1-El. energy change                    ....  1.000e-05 Eh
 DIIS Error             TolErr          ....  5.000e-07


Diagonalization of the overlap matrix:
Smallest eigenvalue                        ... 2.371e-03
Time for diagonalization                   ...    0.002 sec
Threshold for overlap eigenvalues          ... 1.000e-08
Number of eigenvalues below threshold      ... 0
Time for construction of square roots      ...    0.001 sec
Total time needed                          ...    0.003 sec

-------------------
DFT GRID GENERATION
-------------------

General Integration Accuracy     IntAcc      ...  4.670
Radial Grid Type                 RadialGrid  ... Gauss-Chebyshev
Angular Grid (max. acc.)         AngularGrid ... Lebedev-302
Angular grid pruning method      GridPruning ... 3 (G Style)
Weight generation scheme         WeightScheme... Becke
Basis function cutoff            BFCut       ...    1.0000e-11
Integration weight cutoff        WCut        ...    1.0000e-14
Grids for H and He will be reduced by one unit

# of grid points (after initial pruning)     ...  15046 (   0.0 sec)
# of grid points (after weights+screening)   ...  15004 (   0.0 sec)
nearest neighbour list constructed           ...    0.0 sec
Grid point re-assignment to atoms done       ...    0.0 sec
Grid point division into batches done        ...    0.1 sec
Reduced shell lists constructed in    0.1 sec

Total number of grid points                  ...    15004
Total number of batches                      ...      235
Average number of points per batch           ...       63
Average number of grid points per atom       ...     7502
Average number of shells per batch           ...     2.09 ( 8.71%)
Average number of basis functions per batch  ...     4.45 ( 5.86%)
Average number of large shells per batch     ...     1.36 (65.22%)
Average number of large basis fcns per batch ...     3.73 (83.67%)
Maximum spatial batch extension              ...  41.49, 37.74, 22.16 au
Average spatial batch extension              ...   1.25,  1.14,  0.83 au

Time for grid setup =    0.151 sec

------------------------------
INITIAL GUESS: MODEL POTENTIAL
------------------------------
Loading Hartree-Fock densities                     ... done
  calling /sw/apps/orca/orca_4_2_0_linux_x86-64_openmpi314/orca Au01N0_H_atom79.inp > Au01N0_H_atom79.out in order to generate an atomic fitting density for atom 0 (Au with ECP) on-the-fly... 
    atom 0 (Au), assumed electronic state with S=2: 1s2 2s2 2p6 3s2 3p6 4s2 3d10 4p6 5s2 4d10 5p6 6s1 4f14 5d10           ... done
Calculating cut-offs                               ... done
Setting up the integral package                    ... done
Initializing the effective Hamiltonian             ... done
Starting the Coulomb interaction                   ... done (   0.0 sec)
Reading the grid                                   ... done
Mapping shells                                     ... done
Starting the XC term evaluation                    ... done (   0.0 sec)
  promolecular density results
     # of electrons  =     80.002904006
     EX              =   -366.087238892
     EC              =     -4.843832197
     EX+EC           =   -370.931071088
Transforming the Hamiltonian                       ... done (   0.0 sec)
Diagonalizing the Hamiltonian                      ... done (   0.0 sec)
Back transforming the eigenvectors                 ... done (   0.0 sec)
Now organizing SCF variables                       ... done
                      ------------------
                      INITIAL GUESS DONE (   1.1 sec)
                      ------------------
--------------
SCF ITERATIONS
--------------
ITER       Energy         Delta-E        Max-DP      RMS-DP      [F,P]     Damp
               ***  Starting incremental Fock matrix formation  ***
  0   -136.2109605582   0.000000000000 0.24303477  0.00463460  0.5762695 0.7000
  1   -136.2438417571  -0.032881198813 0.16959230  0.00326771  0.3997916 0.7000
  2   -136.2616044961  -0.017762739031 0.11117720  0.00212240  0.2767072 0.7000
                               ***Turning on DIIS***
  3   -136.2730125587  -0.011408062646 0.07526224  0.00143230  0.1927072 0.7000
  4   -136.2809937971  -0.007981238341 0.05316258  0.00103522  0.1349056 0.7000
  5   -136.2866648963  -0.005671099269 0.13718323  0.00274847  0.0949915 0.0000
  6   -136.3003690150  -0.013704118666 0.01745514  0.00034051  0.0035892 0.0000
  7   -136.3004521002  -0.000083085165 0.00796824  0.00015861  0.0025120 0.0000
  8   -136.3004924698  -0.000040369667 0.00997085  0.00020511  0.0018259 0.0000
  9   -136.3005260921  -0.000033622219 0.00365714  0.00008996  0.0011779 0.0000
 10   -136.3005372781  -0.000011186072 0.00217987  0.00008398  0.0006680 0.0000
 11   -136.3005426683  -0.000005390150 0.00044307  0.00001550  0.0001480 0.0000
 12   -136.3005428697  -0.000000201444 0.00013049  0.00000458  0.0000472 0.0000
 13   -136.3005428838  -0.000000014092 0.00004387  0.00000105  0.0000184 0.0000
                 **** Energy Check signals convergence ****

               *****************************************************
               *                     SUCCESS                       *
               *           SCF CONVERGED AFTER  14 CYCLES          *
               *****************************************************


Setting up the DFT-NL grid :

General Integration Accuracy     IntAcc      ...  4.340
Radial Grid Type                 RadialGrid  ... Gauss-Chebyshev
Angular Grid (max. acc.)         AngularGrid ... Lebedev-110
Angular grid pruning method      GridPruning ... 3 (G Style)
Weight generation scheme         WeightScheme... Becke
Basis function cutoff            BFCut       ...    1.0000e-11
Integration weight cutoff        WCut        ...    1.0000e-14
Grids for H and He will be reduced by one unit

# of grid points (after initial pruning)     ...   4324 (   0.0 sec)
# of grid points (after weights+screening)   ...   4293 (   0.0 sec)
nearest neighbour list constructed           ...    0.0 sec
Grid point re-assignment to atoms done       ...    0.0 sec
Grid point division into batches done        ...    0.0 sec
Reduced shell lists constructed in    0.0 sec

Total number of grid points                  ...     4293
Total number of batches                      ...       68
Average number of points per batch           ...       63
Average number of grid points per atom       ...     2146
Average number of shells per batch           ...     7.50 (31.25%)
Average number of basis functions per batch  ...    21.50 (28.29%)
Average number of large shells per batch     ...     5.25 (70.00%)
Average number of large basis fcns per batch ...    12.75 (59.30%)
Maximum spatial batch extension              ...  27.21, 49.51, 26.07 au
Average spatial batch extension              ...   1.11,  1.87,  1.11 au

Final grid set up in    0.0 sec

-------------------------------------------------------------------------------
                         DFT-NL dispersion correction                          
-------------------------------------------------------------------------------

SC Energy -136.300542885 
NL    Energy 0.077197934 
SC+NL Energy -136.223344951 
NL done in    0.0 sec
-------------------------------------------------------------------------------

----------------
TOTAL SCF ENERGY
----------------

Total Energy       :         -136.22334495 Eh           -3706.82567 eV

Components:
Nuclear Repulsion  :            6.60287771 Eh             179.67344 eV
Electronic Energy  :         -142.82622266 Eh           -3886.49910 eV
One Electron Energy:         -252.12023684 Eh           -6860.54043 eV
Two Electron Energy:          109.29401418 Eh            2974.04132 eV

Virial components:
Potential Energy   :         -182.66388529 Eh           -4970.53702 eV
Kinetic Energy     :           46.44054034 Eh            1263.71135 eV
Virial Ratio       :            3.93328510


DFT components:
N(Alpha)           :       10.000001216176 electrons
N(Beta)            :       10.000001216176 electrons
N(Total)           :       20.000002432352 electrons
E(X)               :       -7.993685029114 Eh       
E(C)               :       -0.699250113472 Eh       
NL Energy, E(C,NL) :        0.077197934221 Eh       
E(XC)              :       -8.615737208365 Eh       
DFET-embed. en.    :        0.000000000000 Eh       

---------------
SCF CONVERGENCE
---------------

  Last Energy change         ...   -1.2723e-09  Tolerance :   1.0000e-08
  Last MAX-Density change    ...    1.1787e-05  Tolerance :   1.0000e-07
  Last RMS-Density change    ...    4.5517e-07  Tolerance :   5.0000e-09
  Last DIIS Error            ...    7.5638e-06  Tolerance :   5.0000e-07

             **** THE GBW FILE WAS UPDATED (Au01N0_H.gbw) ****
             **** DENSITY FILE WAS UPDATED (Au01N0_H.scfp) ****
             **** ENERGY FILE WAS UPDATED (Au01N0_H.en.tmp) ****
             **** THE GBW FILE WAS UPDATED (Au01N0_H.gbw) ****
             **** DENSITY FILE WAS UPDATED (Au01N0_H.scfp) ****
----------------
ORBITAL ENERGIES
----------------

  NO   OCC          E(Eh)            E(eV) 
   0   2.0000      -4.294729      -116.8655 
   1   2.0000      -2.480110       -67.4872 
   2   2.0000      -2.459806       -66.9347 
   3   2.0000      -2.459806       -66.9347 
   4   2.0000      -0.523237       -14.2380 
   5   2.0000      -0.433575       -11.7982 
   6   2.0000      -0.433575       -11.7982 
   7   2.0000      -0.413718       -11.2578 
   8   2.0000      -0.413717       -11.2578 
   9   2.0000      -0.353143        -9.6095 
  10   0.0000      -0.025109        -0.6832 
  11   0.0000       0.037712         1.0262 
  12   0.0000       0.037712         1.0262 
  13   0.0000       0.105387         2.8677 
  14   0.0000       0.137306         3.7363 
  15   0.0000       0.220441         5.9985 
  16   0.0000       0.220441         5.9985 
  17   0.0000       0.243144         6.6163 
  18   0.0000       0.269212         7.3256 
  19   0.0000       0.269212         7.3256 
  20   0.0000       0.374547        10.1919 
  21   0.0000       0.374548        10.1920 
  22   0.0000       0.428720        11.6661 
  23   0.0000       0.454109        12.3569 
  24   0.0000       0.454109        12.3569 
  25   0.0000       0.500705        13.6249 
  26   0.0000       0.533155        14.5079 
  27   0.0000       0.888881        24.1877 
  28   0.0000       0.888881        24.1877 
  29   0.0000       1.032840        28.1050 
  30   0.0000       1.147748        31.2318 
  31   0.0000       1.147748        31.2318 
  32   0.0000       1.213270        33.0148 
  33   0.0000       1.213273        33.0148 
  34   0.0000       1.233077        33.5537 
  35   0.0000       1.233077        33.5537 
  36   0.0000       1.289560        35.0907 
  37   0.0000       1.394547        37.9476 
  38   0.0000       1.394547        37.9476 
  39   0.0000       1.530333        41.6425 
  40   0.0000       1.579731        42.9867 
  41   0.0000       1.579733        42.9867 
  42   0.0000       1.699200        46.2376 
  43   0.0000       1.699200        46.2376 
  44   0.0000       2.054679        55.9107 
  45   0.0000       2.380942        64.7887 
  46   0.0000       2.615646        71.1754 
  47   0.0000       3.226295        87.7919 
  48   0.0000       3.226358        87.7937 
  49   0.0000       3.405411        92.6659 
  50   0.0000       3.405411        92.6659 
  51   0.0000       3.619928        98.5033 
  52   0.0000       3.702469       100.7493 
  53   0.0000       3.702469       100.7493 
  54   0.0000       3.746071       101.9358 
  55   0.0000       3.746089       101.9363 
  56   0.0000       3.788454       103.0891 
  57   0.0000       3.788454       103.0891 
  58   0.0000       3.886244       105.7501 
  59   0.0000       3.919609       106.6580 
  60   0.0000       3.919609       106.6580 
  61   0.0000       4.243269       115.4652 
  62   0.0000       4.243269       115.4652 
  63   0.0000       4.253933       115.7554 
  64   0.0000       4.253980       115.7567 
  65   0.0000       4.300499       117.0225 
  66   0.0000       4.300502       117.0226 
  67   0.0000       4.627739       125.9272 
  68   0.0000       4.895156       133.2040 
  69   0.0000       4.895156       133.2040 
  70   0.0000       5.555516       151.1733 
  71   0.0000      27.511279       748.6200 
  72   0.0000      27.511279       748.6200 
  73   0.0000      29.952791       815.0569 
  74   0.0000      44.442050      1209.3297 
  75   0.0000     205.309593      5586.7581 

                    ********************************
                    * MULLIKEN POPULATION ANALYSIS *
                    ********************************

-----------------------
MULLIKEN ATOMIC CHARGES
-----------------------
   0 Au:   -0.151501
   1 H :    0.151501
Sum of atomic charges:   -0.0000000

--------------------------------
MULLIKEN REDUCED ORBITAL CHARGES
--------------------------------
  0 Aus       :     3.327730  s :     3.327730
      pz      :     2.086470  p :     6.086650
      px      :     2.000090
      py      :     2.000090
      dz2     :     1.758464  d :     9.731668
      dxz     :     1.986879
      dyz     :     1.986879
      dx2y2   :     1.999724
      dxy     :     1.999724
      f0      :     0.004782  f :     0.005080
      f+1     :     0.000020
      f-1     :     0.000020
      f+2     :     0.000129
      f-2     :     0.000129
      f+3     :     0.000000
      f-3     :     0.000000
      g0      :     0.000264  g :     0.000373
      g+1     :     0.000045
      g-1     :     0.000045
      g+2     :     0.000010
      g-2     :     0.000010
      g+3     :     0.000000
      g-3     :     0.000000
      g+4     :     0.000000
      g-4     :     0.000000
  1 H s       :     0.827536  s :     0.827536
      pz      :    -0.007288  p :     0.015296
      px      :     0.011292
      py      :     0.011292
      dz2     :     0.002043  d :     0.005667
      dxz     :     0.001675
      dyz     :     0.001675
      dx2y2   :     0.000137
      dxy     :     0.000137


                     *******************************
                     * LOEWDIN POPULATION ANALYSIS *
                     *******************************

----------------------
LOEWDIN ATOMIC CHARGES
----------------------
   0 Au:    0.352705
   1 H :   -0.352705

-------------------------------
LOEWDIN REDUCED ORBITAL CHARGES
-------------------------------
  0 Aus       :     2.960119  s :     2.960119
      pz      :     2.037983  p :     6.032325
      px      :     1.997171
      py      :     1.997171
      dz2     :     1.758336  d :     9.645991
      dxz     :     1.944594
      dyz     :     1.944594
      dx2y2   :     1.999234
      dxy     :     1.999234
      f0      :     0.007224  f :     0.008601
      f+1     :     0.000548
      f-1     :     0.000548
      f+2     :     0.000141
      f-2     :     0.000141
      f+3     :     0.000000
      f-3     :     0.000000
      g0      :     0.000239  g :     0.000258
      g+1     :     0.000001
      g-1     :     0.000001
      g+2     :     0.000008
      g-2     :     0.000008
      g+3     :     0.000000
      g-3     :     0.000000
      g+4     :     0.000000
      g-4     :     0.000000
  1 H s       :     1.057823  s :     1.057823
      pz      :     0.158524  p :     0.252164
      px      :     0.046820
      py      :     0.046820
      dz2     :     0.019751  d :     0.042718
      dxz     :     0.010866
      dyz     :     0.010866
      dx2y2   :     0.000617
      dxy     :     0.000617


                      *****************************
                      * MAYER POPULATION ANALYSIS *
                      *****************************

  NA   - Mulliken gross atomic population
  ZA   - Total nuclear charge
  QA   - Mulliken gross atomic charge
  VA   - Mayer's total valence
  BVA  - Mayer's bonded valence
  FA   - Mayer's free valence

  ATOM       NA         ZA         QA         VA         BVA        FA
  0 Au    19.1515    19.0000    -0.1515     1.0536     1.0536    -0.0000
  1 H      0.8485     1.0000     0.1515     1.0536     1.0536     0.0000

  Mayer bond orders larger than 0.100000
B(  0-Au,  1-H ) :   1.0536 

-------
TIMINGS
-------

Total SCF time: 0 days 0 hours 0 min 3 sec 

Total time                  ....       3.938 sec
Sum of individual times     ....       3.758 sec  ( 95.4%)

Fock matrix formation       ....       2.587 sec  ( 65.7%)
  XC integration            ....       0.292 sec  ( 11.3% of F)
    Basis function eval.    ....       0.018 sec  (  6.0% of XC)
    Density eval.           ....       0.022 sec  (  7.6% of XC)
    XC-Functional eval.     ....       0.015 sec  (  5.1% of XC)
    XC-Potential eval.      ....       0.039 sec  ( 13.5% of XC)
Diagonalization             ....       0.013 sec  (  0.3%)
Density matrix formation    ....       0.004 sec  (  0.1%)
Population analysis         ....       0.002 sec  (  0.1%)
Initial guess               ....       0.978 sec  ( 24.8%)
Orbital Transformation      ....       0.000 sec  (  0.0%)
Orbital Orthonormalization  ....       0.000 sec  (  0.0%)
DIIS solution               ....       0.009 sec  (  0.2%)
Grid generation             ....       0.165 sec  (  4.2%)

-------------------------   --------------------
FINAL SINGLE POINT ENERGY      -136.223344950876
-------------------------   --------------------


----------------------------------------------------------------------------
                           ORCA NUMERICAL GRADIENT
                              (24-process run)
----------------------------------------------------------------------------

I state                        ... 1
J state                        ... 0
Number of atoms                ... 2
Derivative's order of accuracy ... 2
Central differences            ... used
Number of displacements        ... 12
Numerical increment            ... 5.000e-03 bohr
Translation invariance         ... used

The output will be reduced. Please look at the following files:
SCF program output             ... >Au01N0_H.lastscf
Integral program output        ... >Au01N0_H.lastint
Gradient program output        ... >Au01N0_H.lastgrad


     Note:   There are more processes than displacements to do
     ===>:   Reducing number of processes to   3

             <<<Displacing   2/coordinate 1 (+)>>>
             <<<Displacing   2/coordinate 2 (+)>>>
             <<<Displacing   2/coordinate 3 (+)>>>
             <<<Displacing   2/coordinate 2 (-)>>>
             <<<Displacing   2/coordinate 1 (-)>>>
             <<<Displacing   2/coordinate 3 (-)>>>

------------------------------
CARTESIAN GRADIENT (NUMERICAL)
-------------------------------
   1   Au  :   -0.000000214   -0.000000426   -0.007929228
   2   H   :    0.000000214    0.000000426    0.007929228

Norm of the cartesian gradient     ...    0.011213622
RMS gradient                       ...    0.004577942
MAX gradient                       ...    0.007929228

-------
TIMINGS
-------

Total numerical gradient time      ...       14.449 sec

------------------------------------------------------------------------------
                         ORCA GEOMETRY RELAXATION STEP
------------------------------------------------------------------------------

Reading the OPT-File                    .... done
Getting information on internals        .... done
Copying old internal coords+grads       .... done
Making the new internal coordinates     .... (new redundants).... done
Validating the new internal coordinates .... (new redundants).... done
Calculating the B-matrix                .... done
Calculating the G,G- and P matrices     .... done
Transforming gradient to internals      .... done
Projecting the internal gradient        .... done
Number of atoms                         ....   2
Number of internal coordinates          ....   1
Current Energy                          ....  -136.223344951 Eh
Current gradient norm                   ....     0.011213622 Eh/bohr
Maximum allowed component of the step   ....  0.300
Current trust radius                    ....  0.300
Evaluating the initial hessian          ....  (Almloef) done
Projecting the Hessian                  .... done
Forming the augmented Hessian           .... done
Diagonalizing the augmented Hessian     .... done
Last element of RFO vector              ....  0.997041517
Lowest eigenvalues of augmented Hessian:
 -0.000611288
Length of the computed step             ....  0.077092978
The final length of the internal step   ....  0.077092978
Converting the step to cartesian space:
 Initial RMS(Int)=    0.0770929780
Transforming coordinates:
 Iter   0:  RMS(Cart)=    0.0222548258 RMS(Int)=    0.0770929780
 Iter   1:  RMS(Cart)=    0.0000000000 RMS(Int)=    0.0000000000
done
Storing new coordinates                 .... done

                                .--------------------.
          ----------------------|Geometry convergence|-------------------------
          Item                value                   Tolerance       Converged
          ---------------------------------------------------------------------
          RMS gradient        0.0079292284            0.0001000000      NO
          MAX gradient        0.0079292284            0.0003000000      NO
          RMS step            0.0770929780            0.0020000000      NO
          MAX step            0.0770929780            0.0040000000      NO
          ........................................................
          Max(Bonds)      0.0408      Max(Angles)    0.00
          Max(Dihed)        0.00      Max(Improp)    0.00
          ---------------------------------------------------------------------

The optimization has not yet converged - more geometry cycles are needed


    ---------------------------------------------------------------------------
                         Redundant Internal Coordinates
                            (Angstroem and degrees)

        Definition                    Value    dE/dq     Step     New-Value
    ----------------------------------------------------------------------------
     1. B(H   1,Au  0)                1.5227 -0.007929  0.0408    1.5635   
    ----------------------------------------------------------------------------

         *************************************************************
         *                GEOMETRY OPTIMIZATION CYCLE   2            *
         *************************************************************
---------------------------------
CARTESIAN COORDINATES (ANGSTROEM)
---------------------------------
  Au     0.000000    0.000000    0.039432
  H      0.000000    0.000000   -1.524089

----------------------------
CARTESIAN COORDINATES (A.U.)
----------------------------
  NO LB      ZA    FRAG     MASS         X           Y           Z
   0 Au   19.0000*   0   196.966    0.000000    0.000000    0.074516
   1 H     1.0000    0     1.008    0.000000    0.000000   -2.880111
* core charge reduced due to ECP

--------------------------------
INTERNAL COORDINATES (ANGSTROEM)
--------------------------------
 Au     0   0   0     0.000000000000     0.00000000     0.00000000
 H      1   0   0     1.563520846873     0.00000000     0.00000000

---------------------------
INTERNAL COORDINATES (A.U.)
---------------------------
 Au     0   0   0     0.000000000000     0.00000000     0.00000000
 H      1   0   0     2.954626205266     0.00000000     0.00000000



           ************************************************************
           *        Program running with 24 parallel MPI-processes    *
           *              working on a common directory               *
           ************************************************************


           ************************************************************
           *        Program running with 24 parallel MPI-processes    *
           *              working on a common directory               *
           ************************************************************

Diagonalization of the overlap matrix:
Smallest eigenvalue                        ... 2.751e-03
Time for diagonalization                   ...    0.002 sec
Threshold for overlap eigenvalues          ... 1.000e-08
Number of eigenvalues below threshold      ... 0
Time for construction of square roots      ...    0.001 sec
Total time needed                          ...    0.003 sec

-------------------
DFT GRID GENERATION
-------------------

General Integration Accuracy     IntAcc      ...  4.670
Radial Grid Type                 RadialGrid  ... Gauss-Chebyshev
Angular Grid (max. acc.)         AngularGrid ... Lebedev-302
Angular grid pruning method      GridPruning ... 3 (G Style)
Weight generation scheme         WeightScheme... Becke
Basis function cutoff            BFCut       ...    1.0000e-11
Integration weight cutoff        WCut        ...    1.0000e-14
Grids for H and He will be reduced by one unit

# of grid points (after initial pruning)     ...  15046 (   0.0 sec)
# of grid points (after weights+screening)   ...  15004 (   0.0 sec)
nearest neighbour list constructed           ...    0.0 sec
Grid point re-assignment to atoms done       ...    0.0 sec
Grid point division into batches done        ...    0.1 sec
Reduced shell lists constructed in    0.1 sec

Total number of grid points                  ...    15004
Total number of batches                      ...      235
Average number of points per batch           ...       63
Average number of grid points per atom       ...     7502
Average number of shells per batch           ...     2.09 ( 8.71%)
Average number of basis functions per batch  ...     4.45 ( 5.86%)
Average number of large shells per batch     ...     1.36 (65.22%)
Average number of large basis fcns per batch ...     3.73 (83.67%)
Maximum spatial batch extension              ...  41.49, 37.74, 22.16 au
Average spatial batch extension              ...   1.25,  1.14,  0.83 au

Time for grid setup =    0.141 sec

--------------
SCF ITERATIONS
--------------
ITER       Energy         Delta-E        Max-DP      RMS-DP      [F,P]     Damp
               ***  Starting incremental Fock matrix formation  ***
  0   -136.3003299500   0.000000000000 0.00491012  0.00010279  0.1038227 0.7000
  1   -136.3003909202  -0.000060970288 0.00502901  0.00010189  0.0728229 0.7000
                               ***Turning on DIIS***
  2   -136.3004383481  -0.000047427823 0.01425406  0.00028649  0.0510389 0.0000
  3   -136.3005689864  -0.000130638284 0.00401163  0.00008953  0.0014461 0.0000
  4   -136.3005803115  -0.000011325120 0.00400346  0.00009858  0.0009251 0.0000
  5   -136.3005891407  -0.000008829254 0.00241924  0.00006899  0.0005328 0.0000
  6   -136.3005927631  -0.000003622419 0.00096271  0.00002671  0.0002407 0.0000
  7   -136.3005933245  -0.000000561337 0.00019336  0.00000780  0.0001271 0.0000
  8   -136.3005934054  -0.000000080915 0.00015132  0.00000401  0.0000372 0.0000
  9   -136.3005934176  -0.000000012205 0.00002272  0.00000066  0.0000090 0.0000
                 **** Energy Check signals convergence ****

               *****************************************************
               *                     SUCCESS                       *
               *           SCF CONVERGED AFTER  10 CYCLES          *
               *****************************************************


Setting up the DFT-NL grid :

General Integration Accuracy     IntAcc      ...  4.340
Radial Grid Type                 RadialGrid  ... Gauss-Chebyshev
Angular Grid (max. acc.)         AngularGrid ... Lebedev-110
Angular grid pruning method      GridPruning ... 3 (G Style)
Weight generation scheme         WeightScheme... Becke
Basis function cutoff            BFCut       ...    1.0000e-11
Integration weight cutoff        WCut        ...    1.0000e-14
Grids for H and He will be reduced by one unit

# of grid points (after initial pruning)     ...   4324 (   0.0 sec)
# of grid points (after weights+screening)   ...   4293 (   0.0 sec)
nearest neighbour list constructed           ...    0.0 sec
Grid point re-assignment to atoms done       ...    0.0 sec
Grid point division into batches done        ...    0.0 sec
Reduced shell lists constructed in    0.0 sec

Total number of grid points                  ...     4293
Total number of batches                      ...       68
Average number of points per batch           ...       63
Average number of grid points per atom       ...     2146
Average number of shells per batch           ...     7.50 (31.25%)
Average number of basis functions per batch  ...    21.50 (28.29%)
Average number of large shells per batch     ...     5.25 (70.00%)
Average number of large basis fcns per batch ...    12.75 (59.30%)
Maximum spatial batch extension              ...  27.21, 49.51, 26.20 au
Average spatial batch extension              ...   1.11,  1.87,  1.11 au

Final grid set up in    0.0 sec

-------------------------------------------------------------------------------
                         DFT-NL dispersion correction                          
-------------------------------------------------------------------------------

SC Energy -136.300593418 
NL    Energy 0.077213229 
SC+NL Energy -136.223380189 
NL done in    0.0 sec
-------------------------------------------------------------------------------
Total Energy       :         -136.22338019 Eh           -3706.82663 eV
  Last Energy change         ...   -3.9142e-10  Tolerance :   1.0000e-08
  Last MAX-Density change    ...    3.7076e-06  Tolerance :   1.0000e-07
             **** THE GBW FILE WAS UPDATED (Au01N0_H.gbw) ****
             **** DENSITY FILE WAS UPDATED (Au01N0_H.scfp) ****
             **** ENERGY FILE WAS UPDATED (Au01N0_H.en.tmp) ****
             **** THE GBW FILE WAS UPDATED (Au01N0_H.gbw) ****
             **** DENSITY FILE WAS UPDATED (Au01N0_H.scfp) ****
Total SCF time: 0 days 0 hours 0 min 2 sec 

-------------------------   --------------------
FINAL SINGLE POINT ENERGY      -136.223380188679
-------------------------   --------------------


----------------------------------------------------------------------------
                           ORCA NUMERICAL GRADIENT
                              (24-process run)
----------------------------------------------------------------------------

I state                        ... 1
J state                        ... 0
Number of atoms                ... 2
Derivative's order of accuracy ... 2
Central differences            ... used
Number of displacements        ... 12
Numerical increment            ... 5.000e-03 bohr
Translation invariance         ... used

The output will be reduced. Please look at the following files:
SCF program output             ... >Au01N0_H.lastscf
Integral program output        ... >Au01N0_H.lastint
Gradient program output        ... >Au01N0_H.lastgrad


     Note:   There are more processes than displacements to do
     ===>:   Reducing number of processes to   3

             <<<Displacing   2/coordinate 1 (+)>>>
             <<<Displacing   2/coordinate 2 (+)>>>
             <<<Displacing   2/coordinate 3 (+)>>>
             <<<Displacing   2/coordinate 1 (-)>>>
             <<<Displacing   2/coordinate 2 (-)>>>
             <<<Displacing   2/coordinate 3 (-)>>>

------------------------------
CARTESIAN GRADIENT (NUMERICAL)
-------------------------------
   1   Au  :   -0.000000199    0.000000161    0.006532967
   2   H   :    0.000000199   -0.000000161   -0.006532967

Norm of the cartesian gradient     ...    0.009239010
RMS gradient                       ...    0.003771810
MAX gradient                       ...    0.006532967

-------
TIMINGS
-------

Total numerical gradient time      ...       13.453 sec

------------------------------------------------------------------------------
                         ORCA GEOMETRY RELAXATION STEP
------------------------------------------------------------------------------

Reading the OPT-File                    .... done
Getting information on internals        .... done
Copying old internal coords+grads       .... done
Making the new internal coordinates     .... (new redundants).... done
Validating the new internal coordinates .... (new redundants).... done
Calculating the B-matrix                .... done
Calculating the G,G- and P matrices     .... done
Transforming gradient to internals      .... done
Projecting the internal gradient        .... done
Number of atoms                         ....   2
Number of internal coordinates          ....   1
Current Energy                          ....  -136.223380189 Eh
Current gradient norm                   ....     0.009239010 Eh/bohr
Maximum allowed component of the step   ....  0.300
Current trust radius                    ....  0.300
Updating the Hessian (BFGS)             .... done
Forming the augmented Hessian           .... done
Diagonalizing the augmented Hessian     .... done
Last element of RFO vector              ....  0.999395625
Lowest eigenvalues of augmented Hessian:
 -0.000227235
Length of the computed step             ....  0.034782861
The final length of the internal step   ....  0.034782861
Converting the step to cartesian space:
 Initial RMS(Int)=    0.0347828609
Transforming coordinates:
 Iter   0:  RMS(Cart)=    0.0100409471 RMS(Int)=    0.0347828609
 Iter   1:  RMS(Cart)=    0.0000000000 RMS(Int)=    0.0000000000
done
Storing new coordinates                 .... done

                                .--------------------.
          ----------------------|Geometry convergence|-------------------------
          Item                value                   Tolerance       Converged
          ---------------------------------------------------------------------
          Energy change      -0.0000352378            0.0000050000      NO
          RMS gradient        0.0065329666            0.0001000000      NO
          MAX gradient        0.0065329666            0.0003000000      NO
          RMS step            0.0347828609            0.0020000000      NO
          MAX step            0.0347828609            0.0040000000      NO
          ........................................................
          Max(Bonds)      0.0184      Max(Angles)    0.00
          Max(Dihed)        0.00      Max(Improp)    0.00
          ---------------------------------------------------------------------

The optimization has not yet converged - more geometry cycles are needed


    ---------------------------------------------------------------------------
                         Redundant Internal Coordinates
                            (Angstroem and degrees)

        Definition                    Value    dE/dq     Step     New-Value
    ----------------------------------------------------------------------------
     1. B(H   1,Au  0)                1.5635  0.006533 -0.0184    1.5451   
    ----------------------------------------------------------------------------

         *************************************************************
         *                GEOMETRY OPTIMIZATION CYCLE   3            *
         *************************************************************


           ************************************************************
           *        Program running with 24 parallel MPI-processes    *
           *              working on a common directory               *
           ************************************************************


           ************************************************************
           *        Program running with 24 parallel MPI-processes    *
           *              working on a common directory               *
           ************************************************************

Diagonalization of the overlap matrix:
Smallest eigenvalue                        ... 2.577e-03
Time for diagonalization                   ...    0.002 sec
Threshold for overlap eigenvalues          ... 1.000e-08
Number of eigenvalues below threshold      ... 0
Time for construction of square roots      ...    0.001 sec
Total time needed                          ...    0.003 sec

-------------------
DFT GRID GENERATION
-------------------

General Integration Accuracy     IntAcc      ...  4.670
Radial Grid Type                 RadialGrid  ... Gauss-Chebyshev
Angular Grid (max. acc.)         AngularGrid ... Lebedev-302
Angular grid pruning method      GridPruning ... 3 (G Style)
Weight generation scheme         WeightScheme... Becke
Basis function cutoff            BFCut       ...    1.0000e-11
Integration weight cutoff        WCut        ...    1.0000e-14
Grids for H and He will be reduced by one unit

# of grid points (after initial pruning)     ...  15046 (   0.0 sec)
# of grid points (after weights+screening)   ...  15004 (   0.0 sec)
nearest neighbour list constructed           ...    0.0 sec
Grid point re-assignment to atoms done       ...    0.0 sec
Grid point division into batches done        ...    0.1 sec
Reduced shell lists constructed in    0.1 sec

Total number of grid points                  ...    15004
Total number of batches                      ...      236
Average number of points per batch           ...       63
Average number of grid points per atom       ...     7502
Average number of shells per batch           ...     2.09 ( 8.71%)
Average number of basis functions per batch  ...     4.45 ( 5.86%)
Average number of large shells per batch     ...     1.36 (65.22%)
Average number of large basis fcns per batch ...     3.73 (83.67%)
Maximum spatial batch extension              ...  41.49, 37.74, 22.16 au
Average spatial batch extension              ...   1.24,  1.16,  0.83 au

Time for grid setup =    0.146 sec

--------------
SCF ITERATIONS
--------------
ITER       Energy         Delta-E        Max-DP      RMS-DP      [F,P]     Damp
               ***  Starting incremental Fock matrix formation  ***
  0   -136.3006557869   0.000000000000 0.00221694  0.00004631  0.0472210 0.7000
  1   -136.3006679048  -0.000012117905 0.00226740  0.00004589  0.0331216 0.7000
                               ***Turning on DIIS***
  2   -136.3006772974  -0.000009392549 0.00643571  0.00012913  0.0232138 0.0000
  3   -136.3007030909  -0.000025793546 0.00265326  0.00006166  0.0006390 0.0000
  4   -136.3007062408  -0.000003149846 0.00094173  0.00002391  0.0003688 0.0000
  5   -136.3007071307  -0.000000889882 0.00117187  0.00003098  0.0002393 0.0000
  6   -136.3007077798  -0.000000649092 0.00034731  0.00001025  0.0001024 0.0000
  7   -136.3007078681  -0.000000088343 0.00011577  0.00000362  0.0000391 0.0000
  8   -136.3007078772  -0.000000009082 0.00001215  0.00000046  0.0000075 0.0000
  9   -136.3007078774  -0.000000000227 0.00000689  0.00000019  0.0000048 0.0000
                 **** Energy Check signals convergence ****

               *****************************************************
               *                     SUCCESS                       *
               *           SCF CONVERGED AFTER  10 CYCLES          *
               *****************************************************


Setting up the DFT-NL grid :

General Integration Accuracy     IntAcc      ...  4.340
Radial Grid Type                 RadialGrid  ... Gauss-Chebyshev
Angular Grid (max. acc.)         AngularGrid ... Lebedev-110
Angular grid pruning method      GridPruning ... 3 (G Style)
Weight generation scheme         WeightScheme... Becke
Basis function cutoff            BFCut       ...    1.0000e-11
Integration weight cutoff        WCut        ...    1.0000e-14
Grids for H and He will be reduced by one unit

# of grid points (after initial pruning)     ...   4324 (   0.0 sec)
# of grid points (after weights+screening)   ...   4293 (   0.0 sec)
nearest neighbour list constructed           ...    0.0 sec
Grid point re-assignment to atoms done       ...    0.0 sec
Grid point division into batches done        ...    0.0 sec
Reduced shell lists constructed in    0.0 sec

Total number of grid points                  ...     4293
Total number of batches                      ...       68
Average number of points per batch           ...       63
Average number of grid points per atom       ...     2146
Average number of shells per batch           ...     7.50 (31.25%)
Average number of basis functions per batch  ...    21.50 (28.29%)
Average number of large shells per batch     ...     5.25 (70.00%)
Average number of large basis fcns per batch ...    12.75 (59.30%)
Maximum spatial batch extension              ...  27.21, 49.51, 26.20 au
Average spatial batch extension              ...   1.11,  1.87,  1.11 au

Final grid set up in    0.0 sec

-------------------------------------------------------------------------------
                         DFT-NL dispersion correction                          
-------------------------------------------------------------------------------

SC Energy -136.300707877 
NL    Energy 0.077206088 
SC+NL Energy -136.223501790 
NL done in    0.1 sec
-------------------------------------------------------------------------------
Total Energy       :         -136.22350179 Eh           -3706.82994 eV
  Last Energy change         ...   -6.7445e-11  Tolerance :   1.0000e-08
  Last MAX-Density change    ...    3.6695e-06  Tolerance :   1.0000e-07
             **** THE GBW FILE WAS UPDATED (Au01N0_H.gbw) ****
             **** DENSITY FILE WAS UPDATED (Au01N0_H.scfp) ****
             **** ENERGY FILE WAS UPDATED (Au01N0_H.en.tmp) ****
             **** THE GBW FILE WAS UPDATED (Au01N0_H.gbw) ****
             **** DENSITY FILE WAS UPDATED (Au01N0_H.scfp) ****
Total SCF time: 0 days 0 hours 0 min 2 sec 

-------------------------   --------------------
FINAL SINGLE POINT ENERGY      -136.223501789872
-------------------------   --------------------


----------------------------------------------------------------------------
                           ORCA NUMERICAL GRADIENT
                              (24-process run)
----------------------------------------------------------------------------

I state                        ... 1
J state                        ... 0
Number of atoms                ... 2
Derivative's order of accuracy ... 2
Central differences            ... used
Number of displacements        ... 12
Numerical increment            ... 5.000e-03 bohr
Translation invariance         ... used

The output will be reduced. Please look at the following files:
SCF program output             ... >Au01N0_H.lastscf
Integral program output        ... >Au01N0_H.lastint
Gradient program output        ... >Au01N0_H.lastgrad


     Note:   There are more processes than displacements to do
     ===>:   Reducing number of processes to   3

             <<<Displacing   2/coordinate 1 (+)>>>
             <<<Displacing   2/coordinate 2 (+)>>>
             <<<Displacing   2/coordinate 3 (+)>>>
             <<<Displacing   2/coordinate 1 (-)>>>
             <<<Displacing   2/coordinate 2 (-)>>>
             <<<Displacing   2/coordinate 3 (-)>>>

------------------------------
CARTESIAN GRADIENT (NUMERICAL)
-------------------------------
   1   Au  :   -0.000000525   -0.000000142    0.000362712
   2   H   :    0.000000525    0.000000142   -0.000362712

Norm of the cartesian gradient     ...    0.000512952
RMS gradient                       ...    0.000209412
MAX gradient                       ...    0.000362712

-------
TIMINGS
-------

Total numerical gradient time      ...       13.361 sec

------------------------------------------------------------------------------
                         ORCA GEOMETRY RELAXATION STEP
------------------------------------------------------------------------------

Reading the OPT-File                    .... done
Getting information on internals        .... done
Copying old internal coords+grads       .... done
Making the new internal coordinates     .... (new redundants).... done
Validating the new internal coordinates .... (new redundants).... done
Calculating the B-matrix                .... done
Calculating the G,G- and P matrices     .... done
Transforming gradient to internals      .... done
Projecting the internal gradient        .... done
Number of atoms                         ....   2
Number of internal coordinates          ....   1
Current Energy                          ....  -136.223501790 Eh
Current gradient norm                   ....     0.000512952 Eh/bohr
Maximum allowed component of the step   ....  0.300
Current trust radius                    ....  0.300
Updating the Hessian (BFGS)             .... done
Forming the augmented Hessian           .... done
Diagonalizing the augmented Hessian     .... done
Last element of RFO vector              ....  0.999997910
Lowest eigenvalues of augmented Hessian:
 -0.000000742
Length of the computed step             ....  0.002044663
The final length of the internal step   ....  0.002044663
Converting the step to cartesian space:
 Initial RMS(Int)=    0.0020446629
Transforming coordinates:
 Iter   0:  RMS(Cart)=    0.0005902433 RMS(Int)=    0.0020446629
 Iter   1:  RMS(Cart)=    0.0000000000 RMS(Int)=    0.0000000000
done
Storing new coordinates                 .... done

                                .--------------------.
          ----------------------|Geometry convergence|-------------------------
          Item                value                   Tolerance       Converged
          ---------------------------------------------------------------------
          Energy change      -0.0001216012            0.0000050000      NO
          RMS gradient        0.0003627115            0.0001000000      NO
          MAX gradient        0.0003627115            0.0003000000      NO
          RMS step            0.0020446629            0.0020000000      NO
          MAX step            0.0020446629            0.0040000000      YES
          ........................................................
          Max(Bonds)      0.0011      Max(Angles)    0.00
          Max(Dihed)        0.00      Max(Improp)    0.00
          ---------------------------------------------------------------------

The optimization has not yet converged - more geometry cycles are needed


    ---------------------------------------------------------------------------
                         Redundant Internal Coordinates
                            (Angstroem and degrees)

        Definition                    Value    dE/dq     Step     New-Value
    ----------------------------------------------------------------------------
     1. B(H   1,Au  0)                1.5451  0.000363 -0.0011    1.5440   
    ----------------------------------------------------------------------------

         *************************************************************
         *                GEOMETRY OPTIMIZATION CYCLE   4            *
         *************************************************************


           ************************************************************
           *        Program running with 24 parallel MPI-processes    *
           *              working on a common directory               *
           ************************************************************


           ************************************************************
           *        Program running with 24 parallel MPI-processes    *
           *              working on a common directory               *
           ************************************************************

Diagonalization of the overlap matrix:
Smallest eigenvalue                        ... 2.567e-03
Time for diagonalization                   ...    0.003 sec
Threshold for overlap eigenvalues          ... 1.000e-08
Number of eigenvalues below threshold      ... 0
Time for construction of square roots      ...    0.001 sec
Total time needed                          ...    0.004 sec

-------------------
DFT GRID GENERATION
-------------------

General Integration Accuracy     IntAcc      ...  4.670
Radial Grid Type                 RadialGrid  ... Gauss-Chebyshev
Angular Grid (max. acc.)         AngularGrid ... Lebedev-302
Angular grid pruning method      GridPruning ... 3 (G Style)
Weight generation scheme         WeightScheme... Becke
Basis function cutoff            BFCut       ...    1.0000e-11
Integration weight cutoff        WCut        ...    1.0000e-14
Grids for H and He will be reduced by one unit

# of grid points (after initial pruning)     ...  15046 (   0.0 sec)
# of grid points (after weights+screening)   ...  15004 (   0.0 sec)
nearest neighbour list constructed           ...    0.0 sec
Grid point re-assignment to atoms done       ...    0.0 sec
Grid point division into batches done        ...    0.1 sec
Reduced shell lists constructed in    0.1 sec

Total number of grid points                  ...    15004
Total number of batches                      ...      236
Average number of points per batch           ...       63
Average number of grid points per atom       ...     7502
Average number of shells per batch           ...     2.09 ( 8.71%)
Average number of basis functions per batch  ...     4.45 ( 5.86%)
Average number of large shells per batch     ...     1.36 (65.22%)
Average number of large basis fcns per batch ...     3.73 (83.67%)
Maximum spatial batch extension              ...  41.49, 37.74, 22.16 au
Average spatial batch extension              ...   1.25,  1.14,  0.83 au

Time for grid setup =    0.145 sec

--------------
SCF ITERATIONS
--------------
ITER       Energy         Delta-E        Max-DP      RMS-DP      [F,P]     Damp
               ***  Starting incremental Fock matrix formation  ***
  0   -136.3007076389   0.000000000000 0.00013037  0.00000273  0.0027986 0.7000
  1   -136.3007076819  -0.000000043028 0.00013372  0.00000271  0.0019630 0.7000
                               ***Turning on DIIS***
  2   -136.3007077153  -0.000000033377 0.00037981  0.00000762  0.0013758 0.0000
  3   -136.3007078069  -0.000000091589 0.00015662  0.00000366  0.0000381 0.0000
  4   -136.3007078181  -0.000000011180 0.00005709  0.00000145  0.0000218 0.0000
  5   -136.3007078213  -0.000000003213 0.00006887  0.00000183  0.0000142 0.0000
  6   -136.3007078236  -0.000000002298 0.00002127  0.00000062  0.0000061 0.0000
                 **** Energy Check signals convergence ****

               *****************************************************
               *                     SUCCESS                       *
               *           SCF CONVERGED AFTER   7 CYCLES          *
               *****************************************************


Setting up the DFT-NL grid :

General Integration Accuracy     IntAcc      ...  4.340
Radial Grid Type                 RadialGrid  ... Gauss-Chebyshev
Angular Grid (max. acc.)         AngularGrid ... Lebedev-110
Angular grid pruning method      GridPruning ... 3 (G Style)
Weight generation scheme         WeightScheme... Becke
Basis function cutoff            BFCut       ...    1.0000e-11
Integration weight cutoff        WCut        ...    1.0000e-14
Grids for H and He will be reduced by one unit

# of grid points (after initial pruning)     ...   4324 (   0.0 sec)
# of grid points (after weights+screening)   ...   4293 (   0.0 sec)
nearest neighbour list constructed           ...    0.0 sec
Grid point re-assignment to atoms done       ...    0.0 sec
Grid point division into batches done        ...    0.0 sec
Reduced shell lists constructed in    0.0 sec

Total number of grid points                  ...     4293
Total number of batches                      ...       68
Average number of points per batch           ...       63
Average number of grid points per atom       ...     2146
Average number of shells per batch           ...     7.50 (31.25%)
Average number of basis functions per batch  ...    21.50 (28.29%)
Average number of large shells per batch     ...     5.25 (70.00%)
Average number of large basis fcns per batch ...    12.75 (59.30%)
Maximum spatial batch extension              ...  27.21, 49.51, 26.20 au
Average spatial batch extension              ...   1.11,  1.87,  1.11 au

Final grid set up in    0.0 sec

-------------------------------------------------------------------------------
                         DFT-NL dispersion correction                          
-------------------------------------------------------------------------------

SC Energy -136.300707824 
NL    Energy 0.077205680 
SC+NL Energy -136.223502144 
NL done in    0.0 sec
-------------------------------------------------------------------------------
Total Energy       :         -136.22350214 Eh           -3706.82994 eV
  Last Energy change         ...   -3.5402e-10  Tolerance :   1.0000e-08
  Last MAX-Density change    ...    7.1300e-06  Tolerance :   1.0000e-07
             **** THE GBW FILE WAS UPDATED (Au01N0_H.gbw) ****
             **** DENSITY FILE WAS UPDATED (Au01N0_H.scfp) ****
             **** ENERGY FILE WAS UPDATED (Au01N0_H.en.tmp) ****
             **** THE GBW FILE WAS UPDATED (Au01N0_H.gbw) ****
             **** DENSITY FILE WAS UPDATED (Au01N0_H.scfp) ****
Total SCF time: 0 days 0 hours 0 min 1 sec 

-------------------------   --------------------
FINAL SINGLE POINT ENERGY      -136.223502143548
-------------------------   --------------------


----------------------------------------------------------------------------
                           ORCA NUMERICAL GRADIENT
                              (24-process run)
----------------------------------------------------------------------------

I state                        ... 1
J state                        ... 0
Number of atoms                ... 2
Derivative's order of accuracy ... 2
Central differences            ... used
Number of displacements        ... 12
Numerical increment            ... 5.000e-03 bohr
Translation invariance         ... used

The output will be reduced. Please look at the following files:
SCF program output             ... >Au01N0_H.lastscf
Integral program output        ... >Au01N0_H.lastint
Gradient program output        ... >Au01N0_H.lastgrad


     Note:   There are more processes than displacements to do
     ===>:   Reducing number of processes to   3

             <<<Displacing   2/coordinate 2 (+)>>>
             <<<Displacing   2/coordinate 3 (+)>>>
             <<<Displacing   2/coordinate 1 (+)>>>
             <<<Displacing   2/coordinate 2 (-)>>>
             <<<Displacing   2/coordinate 1 (-)>>>
             <<<Displacing   2/coordinate 3 (-)>>>

------------------------------
CARTESIAN GRADIENT (NUMERICAL)
-------------------------------
   1   Au  :   -0.000000444    0.000000071   -0.000018721
   2   H   :    0.000000444   -0.000000071    0.000018721

Norm of the cartesian gradient     ...    0.000026484
RMS gradient                       ...    0.000010812
MAX gradient                       ...    0.000018721

-------
TIMINGS
-------

Total numerical gradient time      ...       13.518 sec

------------------------------------------------------------------------------
                         ORCA GEOMETRY RELAXATION STEP
------------------------------------------------------------------------------

Reading the OPT-File                    .... done
Getting information on internals        .... done
Copying old internal coords+grads       .... done
Making the new internal coordinates     .... (new redundants).... done
Validating the new internal coordinates .... (new redundants).... done
Calculating the B-matrix                .... done
Calculating the G,G- and P matrices     .... done
Transforming gradient to internals      .... done
Projecting the internal gradient        .... done
Number of atoms                         ....   2
Number of internal coordinates          ....   1
Current Energy                          ....  -136.223502144 Eh
Current gradient norm                   ....     0.000026484 Eh/bohr
Maximum allowed component of the step   ....  0.300
Current trust radius                    ....  0.300
Updating the Hessian (BFGS)             .... done
Forming the augmented Hessian           .... done
Diagonalizing the augmented Hessian     .... done
Last element of RFO vector              ....  0.999999995
Lowest eigenvalues of augmented Hessian:
 -0.000000002
Length of the computed step             ....  0.000100355
The final length of the internal step   ....  0.000100355
Converting the step to cartesian space:
 Initial RMS(Int)=    0.0001003552
Transforming coordinates:
 Iter   0:  RMS(Cart)=    0.0000289700 RMS(Int)=    0.0001003552
 Iter   1:  RMS(Cart)=    0.0000000000 RMS(Int)=    0.0000000000
done
Storing new coordinates                 .... done

                                .--------------------.
          ----------------------|Geometry convergence|-------------------------
          Item                value                   Tolerance       Converged
          ---------------------------------------------------------------------
          Energy change      -0.0000003537            0.0000050000      YES
          RMS gradient        0.0000187213            0.0001000000      YES
          MAX gradient        0.0000187213            0.0003000000      YES
          RMS step            0.0001003552            0.0020000000      YES
          MAX step            0.0001003552            0.0040000000      YES
          ........................................................
          Max(Bonds)      0.0001      Max(Angles)    0.00
          Max(Dihed)        0.00      Max(Improp)    0.00
          ---------------------------------------------------------------------

                    ***********************HURRAY********************
                    ***        THE OPTIMIZATION HAS CONVERGED     ***
                    *************************************************


    ---------------------------------------------------------------------------
                         Redundant Internal Coordinates

                          --- Optimized Parameters ---  
                            (Angstroem and degrees)

        Definition                    OldVal   dE/dq     Step     FinalVal
    ----------------------------------------------------------------------------
     1. B(H   1,Au  0)                1.5440 -0.000019  0.0001    1.5441   
    ----------------------------------------------------------------------------
                 *******************************************************
                 *** FINAL ENERGY EVALUATION AT THE STATIONARY POINT ***
                 ***               (AFTER    4 CYCLES)               ***
                 *******************************************************
---------------------------------
CARTESIAN COORDINATES (ANGSTROEM)
---------------------------------
  Au     0.000000    0.000000    0.029714
  H      0.000000    0.000000   -1.514371

----------------------------
CARTESIAN COORDINATES (A.U.)
----------------------------
  NO LB      ZA    FRAG     MASS         X           Y           Z
   0 Au   19.0000*   0   196.966    0.000000    0.000000    0.056152
   1 H     1.0000    0     1.008    0.000000    0.000000   -2.861747
* core charge reduced due to ECP

--------------------------------
INTERNAL COORDINATES (ANGSTROEM)
--------------------------------
 Au     0   0   0     0.000000000000     0.00000000     0.00000000
 H      1   0   0     1.544085666326     0.00000000     0.00000000

---------------------------
INTERNAL COORDINATES (A.U.)
---------------------------
 Au     0   0   0     0.000000000000     0.00000000     0.00000000
 H      1   0   0     2.917899036669     0.00000000     0.00000000

---------------------
BASIS SET INFORMATION
---------------------
There are 2 groups of distinct atoms

 Group   1 Type Au  : 8s8p6d2f1g contracted to 6s5p3d2f1g pattern {311111/41111/411/11/1}
 Group   2 Type H   : 5s3p1d contracted to 3s3p1d pattern {311/111/1}

Atom   0Au   basis set group =>   1
Atom   1H    basis set group =>   2
----------------------------------
AUXILIARY/JK BASIS SET INFORMATION
----------------------------------
There are 2 groups of distinct atoms

 Group   1 Type Au  : 13s12p11d9f5g3h2i contracted to 13s11p10d8f4g3h2i pattern {1111111111111/21111111111/2111111111/21111111/2111/111/11}
 Group   2 Type H   : 4s2p2d contracted to 2s2p2d pattern {31/11/11}

Atom   0Au   basis set group =>   1
Atom   1H    basis set group =>   2
-------------------------
ECP PARAMETER INFORMATION
-------------------------

 Group 1, Type Au ECP Def2-ECP (replacing 60 core electrons, lmax=3)

Atom   0Au   ECP group =>   1



           ************************************************************
           *        Program running with 24 parallel MPI-processes    *
           *              working on a common directory               *
           ************************************************************
------------------------------------------------------------------------------
                           ORCA GTO INTEGRAL CALCULATION
------------------------------------------------------------------------------

                         BASIS SET STATISTICS AND STARTUP INFO

 # of primitive gaussian shells          ...   34
 # of primitive gaussian functions       ...  104
 # of contracted shells                  ...   24
 # of contracted basis functions         ...   76
 Highest angular momentum                ...    4
 Maximum contraction depth               ...    4
 Integral package used                   ... LIBINT
 Integral threshhold            Thresh   ...  2.500e-11
 Primitive cut-off              TCut     ...  2.500e-12


------------------------------ INTEGRAL EVALUATION ----------------------------


 * One electron integrals 

   ECP integrals                         ... done
 Pre-screening matrix                    ... done
 Shell pair data                         ... done (   0.000 sec)



           ************************************************************
           *        Program running with 24 parallel MPI-processes    *
           *              working on a common directory               *
           ************************************************************
-------------------------------------------------------------------------------
                                 ORCA SCF
-------------------------------------------------------------------------------

------------
SCF SETTINGS
------------
Hamiltonian:
 Density Functional     Method          .... DFT(GTOs)
 Exchange Functional    Exchange        .... WB97M-V
 Correlation Functional Correlation     .... WB97M-V
 Gradients option       PostSCFGGA      .... off
 Hybrid DFT is turned on
   Fraction HF Exchange ScalHFX         ....  0.150000
   Scaling of DF-GGA-X  ScalDFX         ....  0.000000
   Scaling of DF-GGA-C  ScalDFC         ....  1.000000
   Scaling of DF-LDA-C  ScalLDAC        ....  1.000000
   Perturbative correction              ....  0.000000
   Density functional embedding theory  .... OFF
 Long-range corrected/Screened/Range-Separated Hybrid DFT is turned on
[...]
SCF CONVERGENCE
---------------

  Last Energy change         ...   -8.7937e-11  Tolerance :   1.0000e-08
  Last MAX-Density change    ...    2.5876e-06  Tolerance :   1.0000e-07
  Last RMS-Density change    ...    5.7303e-08  Tolerance :   5.0000e-09
  Last DIIS Error            ...    9.6376e-05  Tolerance :   5.0000e-07

             **** THE GBW FILE WAS UPDATED (Au01N0_H.gbw) ****
             **** DENSITY FILE WAS UPDATED (Au01N0_H.scfp) ****
             **** ENERGY FILE WAS UPDATED (Au01N0_H.en.tmp) ****
             **** THE GBW FILE WAS UPDATED (Au01N0_H.gbw) ****
             **** DENSITY FILE WAS UPDATED (Au01N0_H.scfp) ****
----------------
ORBITAL ENERGIES
----------------

  NO   OCC          E(Eh)            E(eV) 
   0   2.0000      -4.293747      -116.8388 
   1   2.0000      -2.478545       -67.4446 
   2   2.0000      -2.459086       -66.9151 
   3   2.0000      -2.459086       -66.9151 
   4   2.0000      -0.518286       -14.1033 
   5   2.0000      -0.432442       -11.7674 
   6   2.0000      -0.432442       -11.7674 
   7   2.0000      -0.413275       -11.2458 
   8   2.0000      -0.413274       -11.2457 
   9   2.0000      -0.353357        -9.6153 
  10   0.0000      -0.026294        -0.7155 
  11   0.0000       0.037756         1.0274 
  12   0.0000       0.037756         1.0274 
  13   0.0000       0.106041         2.8855 
  14   0.0000       0.136032         3.7016 
  15   0.0000       0.220553         6.0016 
  16   0.0000       0.220553         6.0016 
  17   0.0000       0.242428         6.5968 
  18   0.0000       0.268645         7.3102 
  19   0.0000       0.268645         7.3102 
  20   0.0000       0.374538        10.1917 
  21   0.0000       0.374540        10.1917 
  22   0.0000       0.426893        11.6163 
  23   0.0000       0.453368        12.3368 
  24   0.0000       0.453368        12.3368 
  25   0.0000       0.501852        13.6561 
  26   0.0000       0.529116        14.3980 
  27   0.0000       0.888408        24.1748 
  28   0.0000       0.888408        24.1748 
  29   0.0000       1.030673        28.0460 
  30   0.0000       1.146997        31.2114 
  31   0.0000       1.146997        31.2114 
  32   0.0000       1.213950        33.0333 
  33   0.0000       1.213953        33.0333 
  34   0.0000       1.233222        33.5577 
  35   0.0000       1.233222        33.5577 
  36   0.0000       1.287884        35.0451 
  37   0.0000       1.390145        37.8278 
  38   0.0000       1.390145        37.8278 
  39   0.0000       1.524915        41.4951 
  40   0.0000       1.580020        42.9945 
  41   0.0000       1.580021        42.9946 
  42   0.0000       1.694426        46.1077 
  43   0.0000       1.694426        46.1077 
  44   0.0000       2.041005        55.5386 
  45   0.0000       2.386884        64.9504 
  46   0.0000       2.619115        71.2698 
  47   0.0000       3.226900        87.8084 
  48   0.0000       3.226973        87.8104 
  49   0.0000       3.398866        92.4878 
  50   0.0000       3.398866        92.4878 
  51   0.0000       3.621120        98.5357 
  52   0.0000       3.702929       100.7618 
  53   0.0000       3.702929       100.7618 
  54   0.0000       3.746122       101.9372 
  55   0.0000       3.746149       101.9379 
  56   0.0000       3.792076       103.1876 
  57   0.0000       3.792076       103.1876 
  58   0.0000       3.879638       105.5703 
  59   0.0000       3.912711       106.4703 
  60   0.0000       3.912711       106.4703 
  61   0.0000       4.243890       115.4821 
  62   0.0000       4.243890       115.4821 
  63   0.0000       4.254261       115.7643 
  64   0.0000       4.254316       115.7658 
  65   0.0000       4.292096       116.7939 
  66   0.0000       4.292098       116.7939 
  67   0.0000       4.589588       124.8890 
  68   0.0000       4.853308       132.0652 
  69   0.0000       4.853308       132.0652 
  70   0.0000       5.539186       150.7289 
  71   0.0000      27.506954       748.5023 
  72   0.0000      27.506954       748.5023 
  73   0.0000      29.931545       814.4787 
  74   0.0000      44.415116      1208.5967 
  75   0.0000     205.298930      5586.4679 

                    ********************************
                    * MULLIKEN POPULATION ANALYSIS *
                    ********************************

-----------------------
MULLIKEN ATOMIC CHARGES
-----------------------
   0 Au:   -0.143461
   1 H :    0.143461
Sum of atomic charges:   -0.0000000

--------------------------------
MULLIKEN REDUCED ORBITAL CHARGES
--------------------------------
  0 Aus       :     3.308001  s :     3.308001
      pz      :     2.088175  p :     6.088426
      px      :     2.000125
      py      :     2.000125
      dz2     :     1.766883  d :     9.741723
      dxz     :     1.987684
      dyz     :     1.987684
      dx2y2   :     1.999736
      dxy     :     1.999736
      f0      :     0.004637  f :     0.004964
      f+1     :     0.000030
      f-1     :     0.000030
      f+2     :     0.000133
      f-2     :     0.000133
      f+3     :     0.000000
      f-3     :     0.000000
      g0      :     0.000246  g :     0.000347
      g+1     :     0.000041
      g-1     :     0.000041
      g+2     :     0.000009
      g-2     :     0.000009
      g+3     :     0.000000
      g-3     :     0.000000
      g+4     :     0.000000
      g-4     :     0.000000
  1 H s       :     0.837107  s :     0.837107
      pz      :    -0.007025  p :     0.014139
      px      :     0.010582
      py      :     0.010582
      dz2     :     0.001975  d :     0.005293
      dxz     :     0.001537
      dyz     :     0.001537
      dx2y2   :     0.000121
      dxy     :     0.000121


                     *******************************
                     * LOEWDIN POPULATION ANALYSIS *
                     *******************************

----------------------
LOEWDIN ATOMIC CHARGES
----------------------
   0 Au:    0.335642
   1 H :   -0.335642

-------------------------------
LOEWDIN REDUCED ORBITAL CHARGES
-------------------------------
  0 Aus       :     2.955680  s :     2.955680
      pz      :     2.043127  p :     6.038158
      px      :     1.997516
      py      :     1.997516
      dz2     :     1.767116  d :     9.662046
      dxz     :     1.948154
      dyz     :     1.948154
      dx2y2   :     1.999311
      dxy     :     1.999311
      f0      :     0.006925  f :     0.008237
      f+1     :     0.000513
      f-1     :     0.000513
      f+2     :     0.000143
      f-2     :     0.000143
      f+3     :     0.000000
      f-3     :     0.000000
      g0      :     0.000217  g :     0.000236
      g+1     :     0.000002
      g-1     :     0.000002
      g+2     :     0.000008
      g-2     :     0.000008
      g+3     :     0.000000
      g-3     :     0.000000
      g+4     :     0.000000
      g-4     :     0.000000
  1 H s       :     1.055428  s :     1.055428
      pz      :     0.153795  p :     0.242058
      px      :     0.044131
      py      :     0.044131
      dz2     :     0.017711  d :     0.038156
      dxz     :     0.009684
      dyz     :     0.009684
      dx2y2   :     0.000538
      dxy     :     0.000538


                      *****************************
                      * MAYER POPULATION ANALYSIS *
                      *****************************

  NA   - Mulliken gross atomic population
  ZA   - Total nuclear charge
  QA   - Mulliken gross atomic charge
  VA   - Mayer's total valence
  BVA  - Mayer's bonded valence
  FA   - Mayer's free valence

  ATOM       NA         ZA         QA         VA         BVA        FA
  0 Au    19.1435    19.0000    -0.1435     1.0541     1.0541     0.0000
  1 H      0.8565     1.0000     0.1435     1.0541     1.0541     0.0000

  Mayer bond orders larger than 0.100000
B(  0-Au,  1-H ) :   1.0541 

-------
TIMINGS
-------

Total SCF time: 0 days 0 hours 0 min 0 sec 

Total time                  ....       0.756 sec
Sum of individual times     ....       0.521 sec  ( 69.0%)

Fock matrix formation       ....       0.361 sec  ( 47.7%)
  XC integration            ....       0.025 sec  (  7.0% of F)
    Basis function eval.    ....       0.002 sec  (  9.4% of XC)
    Density eval.           ....       0.003 sec  ( 11.5% of XC)
    XC-Functional eval.     ....       0.002 sec  (  7.7% of XC)
    XC-Potential eval.      ....       0.004 sec  ( 16.6% of XC)
Diagonalization             ....       0.002 sec  (  0.2%)
Density matrix formation    ....       0.001 sec  (  0.1%)
Population analysis         ....       0.002 sec  (  0.3%)
Initial guess               ....       0.004 sec  (  0.6%)
Orbital Transformation      ....       0.000 sec  (  0.0%)
Orbital Orthonormalization  ....       0.001 sec  (  0.2%)
DIIS solution               ....       0.000 sec  (  0.0%)
Grid generation             ....       0.151 sec  ( 20.0%)

-------------------------   --------------------
FINAL SINGLE POINT ENERGY      -136.223502154267
-------------------------   --------------------

                                *** OPTIMIZATION RUN DONE ***

                            ***************************************
                            *     ORCA property calculations      *
                            ***************************************

                                    ---------------------
                                    Active property flags
                                    ---------------------
   (+) Dipole Moment


------------------------------------------------------------------------------
                       ORCA ELECTRIC PROPERTIES CALCULATION
------------------------------------------------------------------------------

Dipole Moment Calculation                       ... on
Quadrupole Moment Calculation                   ... off
Polarizability Calculation                      ... off
GBWName                                         ... Au01N0_H.gbw
Electron density file                           ... Au01N0_H.scfp
The origin for moment calculation is the CENTER OF MASS  = ( 0.000000,  0.000000  0.041295)

-------------
DIPOLE MOMENT
-------------
                                X             Y             Z
Electronic contribution:      0.00000       0.00000       3.33030
Nuclear contribution   :      0.00000       0.00000      -2.62077
                        -----------------------------------------
Total Dipole Moment    :      0.00000       0.00000       0.70953
                        -----------------------------------------
Magnitude (a.u.)       :      0.70953
Magnitude (Debye)      :      1.80349



--------------------
Rotational spectrum 
--------------------
 
Rotational constants in cm-1:     0.000000     7.050347     7.050347 
Rotational constants in MHz :     0.000000 211364.076270 211364.076270 

 Dipole components along the rotational axes: 
x,y,z [a.u.] :     0.709533     0.000000     0.000000 
x,y,z [Debye]:     1.803490     0.000000     0.000000 

 

----------------------------------------------------------------------------
                           ORCA NUMERICAL FREQUENCIES
                              (24-process run)
----------------------------------------------------------------------------

Number of atoms                ... 2
Central differences            ... used
Number of displacements        ... 12
Numerical increment            ... 5.000e-03 bohr
IR-spectrum generation         ... on
Raman-spectrum generation      ... off
Surface Crossing Hessian       ... off

 WARNING: There are more processes than displacements to do
  ====> : Reducing number of processes to   6

The output will be reduced. Please look at the following files:
SCF program output             ... >Au01N0_H.lastscf
Integral program output        ... >Au01N0_H.lastint
Gradient program output        ... >Au01N0_H.lastgrad
Dipole moment program output   ... >Au01N0_H.lastmom
AutoCI program output          ... >Au01N0_H.lastautoci


         <<< Energy and Gradient at the input geometry >>>

        <<< Energy and Gradient at displaced geometries >>>
             <<<Displacing   2/coordinate 1 (+)>>>
             <<<Displacing   1/coordinate 2 (+)>>>
             <<<Displacing   1/coordinate 1 (+)>>>
             <<<Displacing   2/coordinate 3 (+)>>>
             <<<Displacing   2/coordinate 2 (+)>>>
             <<<Displacing   1/coordinate 3 (+)>>>
             <<<Displacing   1/coordinate 1 (-)>>>
             <<<Displacing   2/coordinate 2 (-)>>>
             <<<Displacing   2/coordinate 1 (-)>>>
             <<<Displacing   1/coordinate 2 (-)>>>
             <<<Displacing   2/coordinate 3 (-)>>>
             <<<Displacing   1/coordinate 3 (-)>>>
Warning: T+R mode no 5 is zero 

-----------------------
VIBRATIONAL FREQUENCIES
-----------------------

Scaling factor for frequencies =  1.000000000 (already applied!)

   0:         0.00 cm**-1
   1:         0.00 cm**-1
   2:         0.00 cm**-1
   3:         0.00 cm**-1
   4:         0.00 cm**-1
   5:      2216.98 cm**-1


------------
NORMAL MODES
------------

These modes are the cartesian displacements weighted by the diagonal matrix
M(i,i)=1/sqrt(m[i]) where m[i] is the mass of the displaced atom
Thus, these vectors are normalized but *not* orthogonal

                  0          1          2          3          4          5    
      0       0.000000   0.000000   0.000000   0.000000   0.000000   0.000000
      1       0.000000   0.000000   0.000000   0.000000   0.000000   0.000000
      2       0.000000   0.000000   0.000000   0.000000   0.000000   0.005118
      3       0.000000   0.000000   0.000000   0.000000   0.000000   0.000000
      4       0.000000   0.000000   0.000000   0.000000   0.000000   0.000000
      5       0.000000   0.000000   0.000000   0.000000   0.000000  -0.999987


-----------
IR SPECTRUM  
-----------

 Mode    freq (cm**-1)   T**2         TX         TY         TZ
-------------------------------------------------------------------
   5:      2216.98   42.498219  (  0.000001   0.000004   6.519066)

The first frequency considered to be a vibration is 5
The total number of vibrations considered is 1


--------------------------
THERMOCHEMISTRY AT 298.15K
--------------------------

Temperature         ... 298.15 K
Pressure            ... 1.00 atm
Total Mass          ... 197.97 AMU
The molecule is recognized as being linear

Throughout the following assumptions are being made:
  (1) The electronic state is orbitally nondegenerate
  (2) There are no thermally accessible electronically excited states
  (3) Hindered rotations indicated by low frequency modes are not
      treated as such but are treated as vibrations and this may
      cause some error
  (4) All equations used are the standard statistical mechanics
      equations for an ideal gas
  (5) All vibrations are strictly harmonic

freq.    2216.98  E(vib)   ...       0.00 

------------
INNER ENERGY
------------

The inner energy is: U= E(el) + E(ZPE) + E(vib) + E(rot) + E(trans)
    E(el)   - is the total energy from the electronic structure calculation
              = E(kin-el) + E(nuc-el) + E(el-el) + E(nuc-nuc)
    E(ZPE)  - the the zero temperature vibrational energy from the frequency calculation
    E(vib)  - the the finite temperature correction to E(ZPE) due to population
              of excited vibrational states
    E(rot)  - is the rotational thermal energy
    E(trans)- is the translational thermal energy

Summary of contributions to the inner energy U:
Electronic energy                ...   -136.22350215 Eh
Zero point energy                ...      0.00505064 Eh       3.17 kcal/mol
Thermal vibrational correction   ...      0.00000023 Eh       0.00 kcal/mol
Thermal rotational correction    ...      0.00094418 Eh       0.59 kcal/mol
Thermal translational correction ...      0.00141627 Eh       0.89 kcal/mol
-----------------------------------------------------------------------
Total thermal energy                   -136.21609083 Eh


Summary of corrections to the electronic energy:
(perhaps to be used in another calculation)
Total thermal correction                  0.00236068 Eh       1.48 kcal/mol
Non-thermal (ZPE) correction              0.00505064 Eh       3.17 kcal/mol
-----------------------------------------------------------------------
Total correction                          0.00741132 Eh       4.65 kcal/mol


--------
ENTHALPY
--------

The enthalpy is H = U + kB*T
                kB is Boltzmann's constant
Total free energy                 ...   -136.21609083 Eh 
Thermal Enthalpy correction       ...      0.00094421 Eh       0.59 kcal/mol
-----------------------------------------------------------------------
Total Enthalpy                    ...   -136.21514662 Eh


Note: Rotational entropy computed according to Herzberg 
Infrared and Raman Spectra, Chapter V,1, Van Nostrand Reinhold, 1945 
Point Group:  Cinfv, Symmetry Number:   1  
Rotational constants in cm-1:     0.000000     7.050347     7.050347 

Vibrational entropy computed according to the QRRHO of S. Grimme
Chem.Eur.J. 2012 18 9955


-------
ENTROPY
-------

The entropy contributions are T*S = T*(S(el)+S(vib)+S(rot)+S(trans))
     S(el)   - electronic entropy
     S(vib)  - vibrational entropy
     S(rot)  - rotational entropy
     S(trans)- translational entropy
The entropies will be listed as mutliplied by the temperature to get
units of energy

Electronic entropy                ...      0.00000000 Eh      0.00 kcal/mol
Vibrational entropy               ...      0.00000025 Eh      0.00 kcal/mol
Rotational entropy                ...      0.00413620 Eh      2.60 kcal/mol
Translational entropy             ...      0.01983851 Eh     12.45 kcal/mol
-----------------------------------------------------------------------
Final entropy term                ...      0.02397496 Eh     15.04 kcal/mol

In case the symmetry of your molecule has not been determined correctly
or in case you have a reason to use a different symmetry number we print 
out the resulting rotational entropy values for sn=1,12 :
 --------------------------------------------------------
|  sn= 1 | S(rot)=             -inf Eh      -inf kcal/mol|
|  sn= 2 | S(rot)=             -inf Eh      -inf kcal/mol|
|  sn= 3 | S(rot)=             -inf Eh      -inf kcal/mol|
|  sn= 4 | S(rot)=             -inf Eh      -inf kcal/mol|
|  sn= 5 | S(rot)=             -inf Eh      -inf kcal/mol|
|  sn= 6 | S(rot)=             -inf Eh      -inf kcal/mol|
|  sn= 7 | S(rot)=             -inf Eh      -inf kcal/mol|
|  sn= 8 | S(rot)=             -inf Eh      -inf kcal/mol|
|  sn= 9 | S(rot)=             -inf Eh      -inf kcal/mol|
|  sn=10 | S(rot)=             -inf Eh      -inf kcal/mol|
|  sn=11 | S(rot)=             -inf Eh      -inf kcal/mol|
|  sn=12 | S(rot)=             -inf Eh      -inf kcal/mol|
 --------------------------------------------------------


-------------------
GIBBS FREE ENERGY
-------------------

The Gibbs free energy is G = H - T*S

Total enthalpy                    ...   -136.21514662 Eh 
Total entropy correction          ...     -0.02397496 Eh    -15.04 kcal/mol
-----------------------------------------------------------------------
Final Gibbs free energy         ...   -136.23912159 Eh

For completeness - the Gibbs free energy minus the electronic energy
G-E(el)                           ...     -0.01561943 Eh     -9.80 kcal/mol


Total Time for Numerical Frequencies  :       100.951 sec

Timings for individual modules:

Sum of individual times         ...       86.873 sec (=   1.448 min)
GTO integral calculation        ...        4.189 sec (=   0.070 min)   4.8 %
SCF iterations                  ...       14.441 sec (=   0.241 min)  16.6 %
SCF Gradient evaluation         ...       68.094 sec (=   1.135 min)  78.4 %
Geometry relaxation             ...        0.149 sec (=   0.002 min)   0.2 %
                             ****ORCA TERMINATED NORMALLY****
TOTAL RUN TIME: 0 days 0 hours 2 minutes 53 seconds 332 msec
