
                                 *****************
                                 * O   R   C   A *
                                 *****************

           --- An Ab Initio, DFT and Semiempirical electronic structure package ---

                  #######################################################
                  #                        -***-                        #
                  #          Department of theory and spectroscopy      #
                  #               Directorship: Frank Neese             #
                  #        Max Planck Institute fuer Kohlenforschung    #
                  #                Kaiser Wilhelm Platz 1               #
                  #                 D-45470 Muelheim/Ruhr               #
                  #                      Germany                        #
                  #                                                     #
                  #                  All rights reserved                #
                  #                        -***-                        #
                  #######################################################


                         Program Version 4.2.0 -  RELEASE  -


 With contributions from (in alphabetic order):
   Daniel Aravena         : Magnetic Suceptibility
   Michael Atanasov       : Ab Initio Ligand Field Theory (pilot matlab implementation)
   Alexander A. Auer      : GIAO ZORA, VPT2
   Ute Becker             : Parallelization
   Giovanni Bistoni       : ED, misc. LED, open-shell LED, HFLED
   Martin Brehm           : Molecular dynamics
   Dmytro Bykov           : SCF Hessian
   Vijay G. Chilkuri      : MRCI spin determinant printing, contributions to CSF-ICE
   Dipayan Datta          : RHF DLPNO-CCSD density
   Achintya Kumar Dutta   : EOM-CC, STEOM-CC
   Dmitry Ganyushin       : Spin-Orbit,Spin-Spin,Magnetic field MRCI
   Miquel Garcia          : C-PCM Hessian, Gaussian charge scheme
   Yang Guo               : DLPNO-NEVPT2, CIM, IAO-localization
   Andreas Hansen         : Spin unrestricted coupled pair/coupled cluster methods
   Benjamin Helmich-Paris : CASSCF linear response (MC-RPA)
   Lee Huntington         : MR-EOM, pCC
   Robert Izsak           : Overlap fitted RIJCOSX, COSX-SCS-MP3, EOM
   Christian Kollmar      : KDIIS, OOCD, Brueckner-CCSD(T), CCSD density
   Simone Kossmann        : Meta GGA functionals, TD-DFT gradient, OOMP2, MP2 Hessian
   Martin Krupicka        : AUTO-CI
   Lucas Lang             : DCDCAS
   Dagmar Lenk            : GEPOL surface, SMD
   Dimitrios Liakos       : Extrapolation schemes; Compound Job, initial MDCI parallelization
   Dimitrios Manganas     : Further ROCIS development; embedding schemes
   Dimitrios Pantazis     : SARC Basis sets
   Taras Petrenko         : DFT Hessian,TD-DFT gradient, ASA, ECA, R-Raman, ABS, FL, XAS/XES, NRVS
   Peter Pinski           : DLPNO-MP2, DLPNO-MP2 Gradient
   Christoph Reimann      : Effective Core Potentials
   Marius Retegan         : Local ZFS, SOC
   Christoph Riplinger    : Optimizer, TS searches, QM/MM, DLPNO-CCSD(T), (RO)-DLPNO pert. Triples
   Tobias Risthaus        : Range-separated hybrids, TD-DFT gradient, RPA, STAB
   Michael Roemelt        : Original ROCIS implementation
   Masaaki Saitow         : Open-shell DLPNO-CCSD energy and density
   Barbara Sandhoefer     : DKH picture change effects
   Avijit Sen             : IP-ROCIS
   Kantharuban Sivalingam : CASSCF convergence, NEVPT2, FIC-MRCI
   Bernardo de Souza      : ESD, SOC TD-DFT
   Georgi Stoychev        : AutoAux, RI-MP2 NMR
   Willem Van den Heuvel  : Paramagnetic NMR
   Boris Wezisla          : Elementary symmetry handling
   Frank Wennmohs         : Technical directorship


 We gratefully acknowledge several colleagues who have allowed us to
 interface, adapt or use parts of their codes:
   Stefan Grimme, W. Hujo, H. Kruse,             : VdW corrections, initial TS optimization,
                  C. Bannwarth                     DFT functionals, gCP, sTDA/sTD-DF
   Ed Valeev, F. Pavosevic, A. Kumar             : LibInt (2-el integral package), F12 methods
   Garnet Chan, S. Sharma, J. Yang, R. Olivares  : DMRG
   Ulf Ekstrom                                   : XCFun DFT Library
   Mihaly Kallay                                 : mrcc  (arbitrary order and MRCC methods)
   Andreas Klamt, Michael Diedenhofen            : otool_cosmo (COSMO solvation model)
   Jiri Pittner, Ondrej Demel                    : Mk-CCSD
   Frank Weinhold                                : gennbo (NPA and NBO analysis)
   Christopher J. Cramer and Donald G. Truhlar   : smd solvation model
   Lars Goerigk                                  : TD-DFT with DH, B97 family of functionals
   V. Asgeirsson, H. Jonsson                     : NEB implementation
   FAccTs GmbH                                   : IRC, NEB, NEB-TS, Multilevel, MM, QM/MM, CI optimization
   S Lehtola, MJT Oliveira, MAL Marques          : LibXC Library


 Your calculation uses the libint2 library for the computation of 2-el integrals
 For citations please refer to: http://libint.valeyev.net

 Your ORCA version has been built with support for libXC version: 4.2.3
 For citations please refer to: https://tddft.org/programs/libxc/

 This ORCA versions uses:
   CBLAS   interface :  Fast vector & matrix operations
   LAPACKE interface :  Fast linear algebra routines
   SCALAPACK package :  Parallel linear algebra routines


Your calculation utilizes the DFT-NL dispersion correction.
Cite in your paper:
Vydrov, O. A.; Van Voorhis, T. J. Chem. Phys. 2010, 133, 244103
Hujo, W.; Grimme, S. J. Chem. Theory Comput. 2011, 7, 3866 
   

----- Orbital basis set information -----
Your calculation utilizes the basis: def2-TZVPPD
   F. Weigend and R. Ahlrichs, Phys. Chem. Chem. Phys. 7, 3297 (2005).
   D. Rappoport and F. Furche, J. Chem. Phys. 133 134105 (2010).

----- AuxJK basis set information -----
Your calculation utilizes the auxiliary basis: def2/JK
   H-Ba, Hf-Rn: F. Weigend, J. Comput. Chem. 29, 167 (2008).

cite the ECPs for Au [Def2-ECP] as follows:
Ce-Yb(ecp-28): M. Dolg, H. Stoll, H.Preuss, J. Chem. Phys., 1989, 90, 1730-1734.
Y-Cd(ecp-28), Hf-Hg(ecp-46): D. Andrae,U. Haeussermann, M. Dolg, H. Stoll, H. Preuss, Theor. Chim. Acta, 1990, 77, 123-141.
In-Sb(ecp-28), Tl-Bi(ecp-46): B. Metz, H. Stoll, M. Dolg, J. Chem. Phys., 2000, 113, 2563-2569.
Te-Xe(ecp-28), Po-Rn(ecp-46): K. A. Peterson, D. Figgen, E. Goll, H. Stoll, M. Dolg, J. Chem. Phys., 2003, 119, 11113-11123.
Rb(ecp-28), Cs(ecp-46): T. Leininger, A. Nicklass, W. Kuechle, H. Stoll, M. Dolg, A. Bergner, Chem. Phys. Lett., 1996, 255, 274-280.
Sr(ecp-28), Ba(ecp-46): M. Kaupp, P. V. Schleyer, H. Stoll and H. Preuss, J. Chem. Phys., 1991, 94, 1360-1366.
La(ecp-46): M. Dolg, H. Stoll, A. Savin, H. Preuss, Theor. Chim. Acta, 1989, 75, 173-194.
Lu(ecp-28): X. Cao, M. Dolg, J. Chem. Phys., 2001, 115, 7348-7355.

ECP parameters for Au [Def2-ECP] have been obtained from:
TURBOMOLE (7.0.2)

================================================================================
                                        WARNINGS
                       Please study these warnings very carefully!
================================================================================


WARNING: your system is open-shell and RHF/RKS was chosen
  ===> : WILL SWITCH to UHF/UKS


WARNING: Geometry Optimization
  ===> : Switching off AutoStart
         For restart on a previous wavefunction, please use MOREAD

INFO   : the flag for use of LIBINT has been found!

================================================================================
                                       INPUT FILE
================================================================================
NAME = Au03N0_LIN.in
|  1> #
|  2> # Au03N0_LIN wB97M-V/Def2-TZVPPD
|  3> #
|  4> ! wb97m-v def2-tzvppd def2/jk grid4 nofinalgrid opt xyzfile numfreq numgrad
|  5> 
|  6> *xyz 0 2
|  7> Au       0.000000    0.000000    0.000000 
|  8> Au       0.000000    0.000000    2.547414 
|  9> Au       0.000000    0.000000   -2.547414 
| 10> *
| 11> 
| 12> %maxcore 5000
| 13> 
| 14> %pal
| 15> nprocs = 24
| 16> end
| 17> 
| 18> 
| 19>                          ****END OF INPUT****
================================================================================

                       *****************************
                       * Geometry Optimization Run *
                       *****************************

Geometry optimization settings:
Update method            Update   .... BFGS
Choice of coordinates    CoordSys .... Z-matrix Internals
Initial Hessian          InHess   .... Almoef's Model

Convergence Tolerances:
Energy Change            TolE     ....  5.0000e-06 Eh
Max. Gradient            TolMAXG  ....  3.0000e-04 Eh/bohr
RMS Gradient             TolRMSG  ....  1.0000e-04 Eh/bohr
Max. Displacement        TolMAXD  ....  4.0000e-03 bohr
RMS Displacement         TolRMSD  ....  2.0000e-03 bohr
Strict Convergence                ....  False
------------------------------------------------------------------------------
                        ORCA OPTIMIZATION COORDINATE SETUP
------------------------------------------------------------------------------

The optimization will be done in new redundant internal coordinates
Making redundant internal coordinates   ...  (new redundants) done
Evaluating the initial hessian          ...  (Almloef) done
Evaluating the coordinates              ...  done
Calculating the B-matrix                .... done
Calculating the G-matrix                .... done
Diagonalizing the G-matrix              .... done
The first mode is                       ....    0
The number of degrees of freedom        ....    4

    -----------------------------------------------------------------
                    Redundant Internal Coordinates


    -----------------------------------------------------------------
         Definition                    Initial Value    Approx d2E/dq
    -----------------------------------------------------------------
      1. B(Au  1,Au  0)                  2.5474         0.017232   
      2. B(Au  2,Au  0)                  2.5474         0.017232   
      3. L(Au  1,Au  0,Au  2, 2)       180.0000         0.163790   
      4. L(Au  1,Au  0,Au  2, 1)       180.0000         0.163790   
    -----------------------------------------------------------------

Number of atoms                         .... 3
Number of degrees of freedom            .... 4

         *************************************************************
         *                GEOMETRY OPTIMIZATION CYCLE   1            *
         *************************************************************
---------------------------------
CARTESIAN COORDINATES (ANGSTROEM)
---------------------------------
  Au     0.000000    0.000000    0.000000
  Au     0.000000    0.000000    2.547414
  Au     0.000000    0.000000   -2.547414

----------------------------
CARTESIAN COORDINATES (A.U.)
----------------------------
  NO LB      ZA    FRAG     MASS         X           Y           Z
   0 Au   19.0000*   0   196.966    0.000000    0.000000    0.000000
   1 Au   19.0000*   0   196.966    0.000000    0.000000    4.813915
   2 Au   19.0000*   0   196.966    0.000000    0.000000   -4.813915
* core charge reduced due to ECP

--------------------------------
INTERNAL COORDINATES (ANGSTROEM)
--------------------------------
 Au     0   0   0     0.000000000000     0.00000000     0.00000000
 Au     1   0   0     2.547414000000     0.00000000     0.00000000
 Au     1   2   0     2.547414000000   179.99999915     0.00000000

---------------------------
INTERNAL COORDINATES (A.U.)
---------------------------
 Au     0   0   0     0.000000000000     0.00000000     0.00000000
 Au     1   0   0     4.813914809717     0.00000000     0.00000000
 Au     1   2   0     4.813914809717   179.99999915     0.00000000

---------------------
BASIS SET INFORMATION
---------------------
There are 1 groups of distinct atoms

 Group   1 Type Au  : 8s8p6d2f1g contracted to 6s5p3d2f1g pattern {311111/41111/411/11/1}

Atom   0Au   basis set group =>   1
Atom   1Au   basis set group =>   1
Atom   2Au   basis set group =>   1
----------------------------------
AUXILIARY/JK BASIS SET INFORMATION
----------------------------------
There are 1 groups of distinct atoms

 Group   1 Type Au  : 13s12p11d9f5g3h2i contracted to 13s11p10d8f4g3h2i pattern {1111111111111/21111111111/2111111111/21111111/2111/111/11}

Atom   0Au   basis set group =>   1
Atom   1Au   basis set group =>   1
Atom   2Au   basis set group =>   1
-------------------------
ECP PARAMETER INFORMATION
-------------------------

 Group 1, Type Au ECP Def2-ECP (replacing 60 core electrons, lmax=3)

Atom   0Au   ECP group =>   1
Atom   1Au   ECP group =>   1
Atom   2Au   ECP group =>   1



           ************************************************************
           *        Program running with 24 parallel MPI-processes    *
           *              working on a common directory               *
           ************************************************************
------------------------------------------------------------------------------
                           ORCA GTO INTEGRAL CALCULATION
------------------------------------------------------------------------------

                         BASIS SET STATISTICS AND STARTUP INFO

 # of primitive gaussian shells          ...   75
 # of primitive gaussian functions       ...  255
 # of contracted shells                  ...   51
 # of contracted basis functions         ...  177
 Highest angular momentum                ...    4
 Maximum contraction depth               ...    4
 Integral package used                   ... LIBINT
 Integral threshhold            Thresh   ...  2.500e-11
 Primitive cut-off              TCut     ...  2.500e-12


------------------------------ INTEGRAL EVALUATION ----------------------------


 * One electron integrals 

   ECP integrals                         ... done
 Pre-screening matrix                    ... done
 Shell pair data                         ... done (   0.000 sec)



           ************************************************************
           *        Program running with 24 parallel MPI-processes    *
           *              working on a common directory               *
           ************************************************************
-------------------------------------------------------------------------------
                                 ORCA SCF
-------------------------------------------------------------------------------

------------
SCF SETTINGS
------------
Hamiltonian:
 Density Functional     Method          .... DFT(GTOs)
 Exchange Functional    Exchange        .... WB97M-V
 Correlation Functional Correlation     .... WB97M-V
 Gradients option       PostSCFGGA      .... off
 Hybrid DFT is turned on
   Fraction HF Exchange ScalHFX         ....  0.150000
   Scaling of DF-GGA-X  ScalDFX         ....  0.000000
   Scaling of DF-GGA-C  ScalDFC         ....  1.000000
   Scaling of DF-LDA-C  ScalLDAC        ....  1.000000
   Perturbative correction              ....  0.000000
   Density functional embedding theory  .... OFF
 Long-range corrected/Screened/Range-Separated Hybrid DFT is turned on
   Amount of maximum screened exact exchange              ....  0.850000
   Range separation parameter mu (erf(mu*r12)/r12)        ....  0.300000
   NL short-range parameter             ....  6.000000
   NL long-range parameter              ....  0.010000


General Settings:
 Integral files         IntName         .... Au03N0_LIN
 Hartree-Fock type      HFTyp           .... UHF
 Total Charge           Charge          ....    0
 Multiplicity           Mult            ....    2
 Number of Electrons    NEL             ....   57
 Basis Dimension        Dim             ....  177
 Nuclear Repulsion      ENuc            ....    187.4773517342 Eh

Convergence Acceleration:
 DIIS                   CNVDIIS         .... on
   Start iteration      DIISMaxIt       ....    12
   Startup error        DIISStart       ....  0.200000
   # of expansion vecs  DIISMaxEq       ....     5
   Bias factor          DIISBfac        ....   1.050
   Max. coefficient     DIISMaxC        ....  10.000
 Newton-Raphson         CNVNR           .... off
 SOSCF                  CNVSOSCF        .... off
 Level Shifting         CNVShift        .... on
   Level shift para.    LevelShift      ....    0.2500
   Turn off err/grad.   ShiftErr        ....    0.0010
 Zerner damping         CNVZerner       .... off
 Static damping         CNVDamp         .... on
   Fraction old density DampFac         ....    0.7000
   Max. Damping (<1)    DampMax         ....    0.9800
   Min. Damping (>=0)   DampMin         ....    0.0000
   Turn off err/grad.   DampErr         ....    0.1000
 Fernandez-Rico         CNVRico         .... off

SCF Procedure:
 Maximum # iterations   MaxIter         ....   125
 SCF integral mode      SCFMode         .... Direct
   Integral package                     .... LIBINT
 Reset frequency        DirectResetFreq ....    20
 Integral Threshold     Thresh          ....  2.500e-11 Eh
 Primitive CutOff       TCut            ....  2.500e-12 Eh

Convergence Tolerance:
 Convergence Check Mode ConvCheckMode   .... Total+1el-Energy
 Convergence forced     ConvForced      .... 0
 Energy Change          TolE            ....  1.000e-08 Eh
 1-El. energy change                    ....  1.000e-05 Eh
 DIIS Error             TolErr          ....  5.000e-07


Diagonalization of the overlap matrix:
Smallest eigenvalue                        ... 7.322e-04
Time for diagonalization                   ...    0.005 sec
Threshold for overlap eigenvalues          ... 1.000e-08
Number of eigenvalues below threshold      ... 0
Time for construction of square roots      ...    0.004 sec
Total time needed                          ...    0.009 sec

-------------------
DFT GRID GENERATION
-------------------

General Integration Accuracy     IntAcc      ...  4.670
Radial Grid Type                 RadialGrid  ... Gauss-Chebyshev
Angular Grid (max. acc.)         AngularGrid ... Lebedev-302
Angular grid pruning method      GridPruning ... 3 (G Style)
Weight generation scheme         WeightScheme... Becke
Basis function cutoff            BFCut       ...    1.0000e-11
Integration weight cutoff        WCut        ...    1.0000e-14
Grids for H and He will be reduced by one unit

# of grid points (after initial pruning)     ...  34956 (   0.0 sec)
# of grid points (after weights+screening)   ...  34728 (   0.0 sec)
nearest neighbour list constructed           ...    0.0 sec
Grid point re-assignment to atoms done       ...    0.0 sec
Grid point division into batches done        ...    0.3 sec
Reduced shell lists constructed in    0.4 sec

Total number of grid points                  ...    34728
Total number of batches                      ...      544
Average number of points per batch           ...       63
Average number of grid points per atom       ...    11576
Average number of shells per batch           ...    14.96 (29.33%)
Average number of basis functions per batch  ...    47.62 (26.91%)
Average number of large shells per batch     ...    10.42 (69.64%)
Average number of large basis fcns per batch ...    28.58 (60.02%)
Maximum spatial batch extension              ...  37.74, 37.74,  4.80 au
Average spatial batch extension              ...   0.53,  0.53,  0.19 au

Time for grid setup =    0.375 sec

------------------------------
INITIAL GUESS: MODEL POTENTIAL
------------------------------
Loading Hartree-Fock densities                     ... done
  calling /sw/apps/orca/orca_4_2_0_linux_x86-64_openmpi314/orca Au03N0_LIN_atom79.inp > Au03N0_LIN_atom79.out in order to generate an atomic fitting density for atom 0 (Au with ECP) on-the-fly... 
    atom 0 (Au), assumed electronic state with S=2: 1s2 2s2 2p6 3s2 3p6 4s2 3d10 4p6 5s2 4d10 5p6 6s1 4f14 5d10           ... done
Calculating cut-offs                               ... done
Setting up the integral package                    ... done
Initializing the effective Hamiltonian             ... done
Starting the Coulomb interaction                   ... done (   0.0 sec)
Reading the grid                                   ... done
Mapping shells                                     ... done
Starting the XC term evaluation                    ... done (   0.0 sec)
  promolecular density results
     # of electrons  =    237.007936022
     EX              =  -1097.391673668
     EC              =    -14.469987343
     EX+EC           =  -1111.861661012
Transforming the Hamiltonian                       ... done (   0.0 sec)
Diagonalizing the Hamiltonian                      ... done (   0.0 sec)
Back transforming the eigenvectors                 ... done (   0.0 sec)
Now organizing SCF variables                       ... done
                      ------------------
                      INITIAL GUESS DONE (   1.4 sec)
                      ------------------
--------------
SCF ITERATIONS
--------------
ITER       Energy         Delta-E        Max-DP      RMS-DP      [F,P]     Damp
               ***  Starting incremental Fock matrix formation  ***
  0   -406.8511859229   0.000000000000 0.13422673  0.00180582  0.5925431 0.7000
  1   -406.9714094356  -0.120223512651 0.09213775  0.00128646  0.4111141 0.7000
  2   -407.0324460055  -0.061036569952 0.05889952  0.00082528  0.2843771 0.7000
                               ***Turning on DIIS***
  3   -407.0713018686  -0.038855863038 0.03934311  0.00054742  0.1977925 0.7000
  4   -407.0989583519  -0.027656483275 0.02840062  0.00039250  0.1382439 0.7000
  5   -407.1188645883  -0.019906236401 0.07495454  0.00104111  0.0973185 0.0000
  6   -407.1677819449  -0.048917356654 0.00967958  0.00013892  0.0058709 0.0000
  7   -407.1683382767  -0.000556331805 0.00506184  0.00008540  0.0046322 0.0000
  8   -407.1686482590  -0.000309982231 0.00748483  0.00012057  0.0037392 0.0000
  9   -407.1689444237  -0.000296164780 0.00484172  0.00007857  0.0023955 0.0000
 10   -407.1690481109  -0.000103687212 0.00314419  0.00004442  0.0014463 0.0000
 11   -407.1690749257  -0.000026814727 0.00330685  0.00004796  0.0008537 0.0000
 12   -407.1690703278   0.000004597897 0.00083054  0.00001262  0.0002816 0.0000
 13   -407.1690675461   0.000002781669 0.00048162  0.00000779  0.0001139 0.0000
 14   -407.1690663460   0.000001200084 0.00030475  0.00000461  0.0000530 0.0000
 15   -407.1690652898   0.000001056211 0.00017803  0.00000249  0.0000224 0.0000
 16   -407.1690651012   0.000000188597 0.00006752  0.00000099  0.0000099 0.0000
 17   -407.1690650550   0.000000046261 0.00003216  0.00000045  0.0000063 0.0000
 18   -407.1690650645  -0.000000009570 0.00001112  0.00000017  0.0000038 0.0000
 19   -407.1690650766  -0.000000012126 0.00001314  0.00000020  0.0000033 0.0000
               *** Restarting incremental Fock matrix formation ***
                                   *** Resetting DIIS ***
 20   -407.1690650876  -0.000000010928 0.00000254  0.00000004  0.0000012 0.0000
                            ***DIIS convergence achieved***

               *****************************************************
               *                     SUCCESS                       *
               *           SCF CONVERGED AFTER  21 CYCLES          *
               *****************************************************


Setting up the DFT-NL grid :

General Integration Accuracy     IntAcc      ...  4.340
Radial Grid Type                 RadialGrid  ... Gauss-Chebyshev
Angular Grid (max. acc.)         AngularGrid ... Lebedev-110
Angular grid pruning method      GridPruning ... 3 (G Style)
Weight generation scheme         WeightScheme... Becke
Basis function cutoff            BFCut       ...    1.0000e-11
Integration weight cutoff        WCut        ...    1.0000e-14
Grids for H and He will be reduced by one unit

# of grid points (after initial pruning)     ...  10590 (   0.0 sec)
# of grid points (after weights+screening)   ...  10518 (   0.0 sec)
nearest neighbour list constructed           ...    0.0 sec
Grid point re-assignment to atoms done       ...    0.0 sec
Grid point division into batches done        ...    0.0 sec
Reduced shell lists constructed in    0.0 sec

Total number of grid points                  ...    10518
Total number of batches                      ...      167
Average number of points per batch           ...       62
Average number of grid points per atom       ...     3506
Average number of shells per batch           ...    19.12 (37.50%)
Average number of basis functions per batch  ...    61.88 (34.96%)
Average number of large shells per batch     ...    15.62 (81.70%)
Average number of large basis fcns per batch ...    45.62 (73.74%)
Maximum spatial batch extension              ...  26.72, 49.51,  4.53 au
Average spatial batch extension              ...   0.67,  1.04,  0.19 au

Final grid set up in    0.0 sec

-------------------------------------------------------------------------------
                         DFT-NL dispersion correction                          
-------------------------------------------------------------------------------

SC Energy -407.169065086 
NL    Energy 0.212442898 
SC+NL Energy -406.956622188 
NL done in    0.0 sec
-------------------------------------------------------------------------------

----------------
TOTAL SCF ENERGY
----------------

Total Energy       :         -406.95662219 Eh          -11073.85267 eV

Components:
Nuclear Repulsion  :          187.47735173 Eh            5101.51810 eV
Electronic Energy  :         -594.43397392 Eh          -16175.37077 eV
One Electron Energy:        -1091.06197230 Eh          -29689.30564 eV
Two Electron Energy:          496.62799837 Eh           13513.93487 eV

Virial components:
Potential Energy   :         -545.01836085 Eh          -14830.70358 eV
Kinetic Energy     :          138.06173866 Eh            3756.85090 eV
Virial Ratio       :            3.94764231


DFT components:
N(Alpha)           :       28.999995934771 electrons
N(Beta)            :       27.999996056448 electrons
N(Total)           :       56.999991991219 electrons
E(X)               :      -23.601203571678 Eh       
E(C)               :       -2.046885180281 Eh       
NL Energy, E(C,NL) :        0.212442897792 Eh       
E(XC)              :      -25.435645854167 Eh       
DFET-embed. en.    :        0.000000000000 Eh       

---------------
SCF CONVERGENCE
---------------

  Last Energy change         ...    1.9061e-09  Tolerance :   1.0000e-08
  Last MAX-Density change    ...    1.2907e-06  Tolerance :   1.0000e-07
  Last RMS-Density change    ...    1.9588e-08  Tolerance :   5.0000e-09
  Last DIIS Error            ...    7.8157e-07  Tolerance :   5.0000e-07

             **** THE GBW FILE WAS UPDATED (Au03N0_LIN.gbw) ****
             **** DENSITY FILE WAS UPDATED (Au03N0_LIN.scfp) ****
             **** ENERGY FILE WAS UPDATED (Au03N0_LIN.en.tmp) ****
----------------------
UHF SPIN CONTAMINATION
----------------------

Warning: in a DFT calculation there is little theoretical justification to 
         calculate <S**2> as in Hartree-Fock theory. We will do it anyways
         but you should keep in mind that the values have only limited relevance

Expectation value of <S**2>     :     0.790416
Ideal value S*(S+1) for S=0.5   :     0.750000
Deviation                       :     0.040416

             **** THE GBW FILE WAS UPDATED (Au03N0_LIN.gbw) ****
             **** DENSITY FILE WAS UPDATED (Au03N0_LIN.scfp) ****
----------------
ORBITAL ENERGIES
----------------
                 SPIN UP ORBITALS
  NO   OCC          E(Eh)            E(eV) 
   0   1.0000      -4.279488      -116.4508 
   1   1.0000      -4.279484      -116.4507 
   2   1.0000      -4.261629      -115.9648 
   3   1.0000      -2.459748       -66.9332 
   4   1.0000      -2.457037       -66.8594 
   5   1.0000      -2.450544       -66.6827 
   6   1.0000      -2.450544       -66.6827 
   7   1.0000      -2.450542       -66.6826 
   8   1.0000      -2.450542       -66.6826 
   9   1.0000      -2.438956       -66.3674 
  10   1.0000      -2.429805       -66.1183 
  11   1.0000      -2.429805       -66.1183 
  12   1.0000      -0.500319       -13.6144 
  13   1.0000      -0.455689       -12.3999 
  14   1.0000      -0.455689       -12.3999 
  15   1.0000      -0.425048       -11.5662 
  16   1.0000      -0.424066       -11.5394 
  17   1.0000      -0.424066       -11.5394 
  18   1.0000      -0.416480       -11.3330 
  19   1.0000      -0.416470       -11.3327 
  20   1.0000      -0.414033       -11.2664 
  21   1.0000      -0.414023       -11.2661 
  22   1.0000      -0.385307       -10.4847 
  23   1.0000      -0.385293       -10.4843 
  24   1.0000      -0.368145       -10.0177 
  25   1.0000      -0.364360        -9.9147 
  26   1.0000      -0.364360        -9.9147 
  27   1.0000      -0.346268        -9.4224 
  28   1.0000      -0.312657        -8.5078 
  29   0.0000      -0.036553        -0.9947 
  30   0.0000       0.015272         0.4156 
  31   0.0000       0.015272         0.4156 
  32   0.0000       0.033884         0.9220 
  33   0.0000       0.052654         1.4328 
  34   0.0000       0.052654         1.4328 
  35   0.0000       0.112722         3.0673 
  36   0.0000       0.116609         3.1731 
  37   0.0000       0.116609         3.1731 
  38   0.0000       0.142084         3.8663 
  39   0.0000       0.182579         4.9682 
  40   0.0000       0.214264         5.8304 
  41   0.0000       0.214264         5.8304 
  42   0.0000       0.216645         5.8952 
  43   0.0000       0.252574         6.8729 
  44   0.0000       0.252574         6.8729 
  45   0.0000       0.261174         7.1069 
  46   0.0000       0.319287         8.6882 
  47   0.0000       0.319287         8.6882 
  48   0.0000       0.341970         9.3055 
  49   0.0000       0.341971         9.3055 
  50   0.0000       0.361035         9.8243 
  51   0.0000       0.364257         9.9120 
  52   0.0000       0.373923        10.1750 
  53   0.0000       0.373923        10.1750 
  54   0.0000       0.403190        10.9713 
  55   0.0000       0.403190        10.9713 
  56   0.0000       0.457658        12.4535 
  57   0.0000       0.457658        12.4535 
  58   0.0000       0.476152        12.9568 
  59   0.0000       0.493461        13.4278 
  60   0.0000       0.493461        13.4278 
  61   0.0000       0.583733        15.8842 
  62   0.0000       0.627683        17.0801 
  63   0.0000       0.627683        17.0801 
  64   0.0000       0.663813        18.0633 
  65   0.0000       0.693772        18.8785 
  66   0.0000       0.921960        25.0878 
  67   0.0000       1.027015        27.9465 
  68   0.0000       1.027015        27.9465 
  69   0.0000       1.124367        30.5956 
  70   0.0000       1.133256        30.8375 
  71   0.0000       1.133256        30.8375 
  72   0.0000       1.144868        31.1534 
  73   0.0000       1.144870        31.1535 
  74   0.0000       1.159207        31.5436 
  75   0.0000       1.159207        31.5436 
  76   0.0000       1.200489        32.6670 
  77   0.0000       1.200489        32.6670 
  78   0.0000       1.218903        33.1680 
  79   0.0000       1.218903        33.1680 
  80   0.0000       1.222554        33.2674 
  81   0.0000       1.222554        33.2674 
  82   0.0000       1.231573        33.5128 
  83   0.0000       1.231576        33.5129 
  84   0.0000       1.257916        34.2296 
  85   0.0000       1.259118        34.2623 
  86   0.0000       1.259118        34.2623 
  87   0.0000       1.331470        36.2311 
  88   0.0000       1.331476        36.2313 
  89   0.0000       1.337564        36.3970 
  90   0.0000       1.337564        36.3970 
  91   0.0000       1.370287        37.2874 
  92   0.0000       1.493626        40.6436 
  93   0.0000       1.493626        40.6436 
  94   0.0000       1.529189        41.6114 
  95   0.0000       1.529189        41.6114 
  96   0.0000       1.536086        41.7990 
  97   0.0000       1.547323        42.1048 
  98   0.0000       1.561675        42.4953 
  99   0.0000       1.561685        42.4956 
 100   0.0000       1.577867        42.9360 
 101   0.0000       1.577876        42.9362 
 102   0.0000       1.615999        43.9736 
 103   0.0000       1.643083        44.7106 
 104   0.0000       1.643092        44.7108 
 105   0.0000       1.744312        47.4651 
 106   0.0000       1.744312        47.4651 
 107   0.0000       1.831775        49.8451 
 108   0.0000       1.831775        49.8451 
 109   0.0000       2.013973        54.8030 
 110   0.0000       2.167356        58.9768 
 111   0.0000       2.237423        60.8834 
 112   0.0000       2.524195        68.6868 
 113   0.0000       2.891958        78.6942 
 114   0.0000       3.611099        98.2630 
 115   0.0000       3.611099        98.2630 
 116   0.0000       3.639460        99.0347 
 117   0.0000       3.639580        99.0380 
 118   0.0000       3.701067       100.7112 
 119   0.0000       3.701067       100.7112 
 120   0.0000       3.704803       100.8128 
 121   0.0000       3.704803       100.8128 
 122   0.0000       3.708653       100.9176 
 123   0.0000       3.708759       100.9205 
 124   0.0000       3.732562       101.5682 
 125   0.0000       3.732562       101.5682 
 126   0.0000       3.771455       102.6265 
 127   0.0000       3.771455       102.6265 
 128   0.0000       3.804712       103.5315 
 129   0.0000       3.804858       103.5355 
 130   0.0000       3.852742       104.8384 
 131   0.0000       3.915405       106.5436 
 132   0.0000       4.005725       109.0013 
 133   0.0000       4.005725       109.0013 
 134   0.0000       4.100777       111.5878 
 135   0.0000       4.236621       115.2843 
 136   0.0000       4.237713       115.3140 
 137   0.0000       4.237713       115.3140 
 138   0.0000       4.242217       115.4366 
 139   0.0000       4.242288       115.4385 
 140   0.0000       4.247256       115.5737 
 141   0.0000       4.247256       115.5737 
 142   0.0000       4.247354       115.5764 
 143   0.0000       4.247354       115.5764 
 144   0.0000       4.247990       115.5937 
 145   0.0000       4.248053       115.5954 
 146   0.0000       4.250936       115.6738 
 147   0.0000       4.250936       115.6738 
 148   0.0000       4.251372       115.6857 
 149   0.0000       4.251372       115.6857 
 150   0.0000       4.271891       116.2441 
 151   0.0000       4.271891       116.2441 
 152   0.0000       4.272405       116.2580 
 153   0.0000       4.272508       116.2609 
 154   0.0000       4.278193       116.4155 
 155   0.0000       4.278809       116.4323 
 156   0.0000       4.326488       117.7297 
 157   0.0000       4.326488       117.7297 
 158   0.0000       4.343678       118.1975 
 159   0.0000       4.343678       118.1975 
 160   0.0000       4.560452       124.0962 
 161   0.0000       4.569593       124.3449 
 162   0.0000      27.283305       742.4165 
 163   0.0000      27.283305       742.4165 
 164   0.0000      27.609304       751.2873 
 165   0.0000      27.609304       751.2873 
 166   0.0000      27.851346       757.8737 
 167   0.0000      27.851346       757.8737 
 168   0.0000      28.183635       766.9157 
 169   0.0000      28.570712       777.4486 
 170   0.0000      31.465781       856.2274 
 171   0.0000      44.030891      1198.1415 
 172   0.0000      44.325290      1206.1525 
 173   0.0000      44.728802      1217.1326 
 174   0.0000     205.147797      5582.3554 
 175   0.0000     205.273149      5585.7664 
 176   0.0000     205.454581      5590.7034 

                 SPIN DOWN ORBITALS
  NO   OCC          E(Eh)            E(eV) 
   0   1.0000      -4.278130      -116.4138 
   1   1.0000      -4.278125      -116.4137 
   2   1.0000      -4.262431      -115.9866 
   3   1.0000      -2.458973       -66.9121 
   4   1.0000      -2.456102       -66.8339 
   5   1.0000      -2.449064       -66.6424 
   6   1.0000      -2.449064       -66.6424 
   7   1.0000      -2.449005       -66.6408 
   8   1.0000      -2.449005       -66.6408 
   9   1.0000      -2.439757       -66.3892 
  10   1.0000      -2.430844       -66.1466 
  11   1.0000      -2.430844       -66.1466 
  12   1.0000      -0.495344       -13.4790 
  13   1.0000      -0.451485       -12.2855 
  14   1.0000      -0.451485       -12.2855 
  15   1.0000      -0.422807       -11.5052 
  16   1.0000      -0.418728       -11.3942 
  17   1.0000      -0.418728       -11.3942 
  18   1.0000      -0.411084       -11.1862 
  19   1.0000      -0.411074       -11.1859 
  20   1.0000      -0.407912       -11.0998 
  21   1.0000      -0.407902       -11.0996 
  22   1.0000      -0.385623       -10.4933 
  23   1.0000      -0.385609       -10.4930 
  24   1.0000      -0.363465        -9.8904 
  25   1.0000      -0.363465        -9.8904 
  26   1.0000      -0.354714        -9.6523 
  27   1.0000      -0.318692        -8.6721 
  28   0.0000      -0.125299        -3.4096 
  29   0.0000      -0.037018        -1.0073 
  30   0.0000       0.007425         0.2020 
  31   0.0000       0.007425         0.2020 
  32   0.0000       0.013007         0.3539 
  33   0.0000       0.038618         1.0508 
  34   0.0000       0.038618         1.0508 
  35   0.0000       0.092060         2.5051 
  36   0.0000       0.102650         2.7932 
  37   0.0000       0.102650         2.7932 
  38   0.0000       0.135849         3.6966 
  39   0.0000       0.182552         4.9675 
  40   0.0000       0.205155         5.5825 
  41   0.0000       0.217182         5.9098 
  42   0.0000       0.217182         5.9098 
  43   0.0000       0.250489         6.8161 
  44   0.0000       0.254700         6.9308 
  45   0.0000       0.254700         6.9308 
  46   0.0000       0.316836         8.6216 
  47   0.0000       0.316836         8.6216 
  48   0.0000       0.332970         9.0606 
  49   0.0000       0.332970         9.0606 
  50   0.0000       0.352851         9.6016 
  51   0.0000       0.356597         9.7035 
  52   0.0000       0.357313         9.7230 
  53   0.0000       0.357313         9.7230 
  54   0.0000       0.389884        10.6093 
  55   0.0000       0.389884        10.6093 
  56   0.0000       0.450312        12.2536 
  57   0.0000       0.450313        12.2536 
  58   0.0000       0.465520        12.6674 
  59   0.0000       0.481097        13.0913 
  60   0.0000       0.481097        13.0913 
  61   0.0000       0.575844        15.6695 
  62   0.0000       0.623379        16.9630 
  63   0.0000       0.623379        16.9630 
  64   0.0000       0.661734        18.0067 
  65   0.0000       0.693797        18.8792 
  66   0.0000       0.926244        25.2044 
  67   0.0000       1.031343        28.0643 
  68   0.0000       1.031343        28.0643 
  69   0.0000       1.126969        30.6664 
  70   0.0000       1.134910        30.8825 
  71   0.0000       1.134910        30.8825 
  72   0.0000       1.151797        31.3420 
  73   0.0000       1.151800        31.3421 
  74   0.0000       1.161951        31.6183 
  75   0.0000       1.161951        31.6183 
  76   0.0000       1.199743        32.6467 
  77   0.0000       1.199743        32.6467 
  78   0.0000       1.229587        33.4588 
  79   0.0000       1.229587        33.4588 
  80   0.0000       1.235012        33.6064 
  81   0.0000       1.235012        33.6064 
  82   0.0000       1.243220        33.8297 
  83   0.0000       1.243221        33.8298 
  84   0.0000       1.256376        34.1877 
  85   0.0000       1.259548        34.2740 
  86   0.0000       1.259548        34.2740 
  87   0.0000       1.335501        36.3408 
  88   0.0000       1.335505        36.3409 
  89   0.0000       1.344248        36.5789 
  90   0.0000       1.344248        36.5789 
  91   0.0000       1.376063        37.4446 
  92   0.0000       1.496647        40.7258 
  93   0.0000       1.496647        40.7258 
  94   0.0000       1.532806        41.7098 
  95   0.0000       1.532806        41.7098 
  96   0.0000       1.537144        41.8278 
  97   0.0000       1.548795        42.1449 
  98   0.0000       1.565595        42.6020 
  99   0.0000       1.565605        42.6023 
 100   0.0000       1.584865        43.1264 
 101   0.0000       1.584874        43.1266 
 102   0.0000       1.618450        44.0403 
 103   0.0000       1.644481        44.7486 
 104   0.0000       1.644489        44.7488 
 105   0.0000       1.750809        47.6419 
 106   0.0000       1.750809        47.6419 
 107   0.0000       1.834409        49.9168 
 108   0.0000       1.834409        49.9168 
 109   0.0000       2.020678        54.9854 
 110   0.0000       2.172225        59.1093 
 111   0.0000       2.239407        60.9374 
 112   0.0000       2.527727        68.7829 
 113   0.0000       2.893539        78.7372 
 114   0.0000       3.612098        98.2902 
 115   0.0000       3.612098        98.2902 
 116   0.0000       3.640731        99.0693 
 117   0.0000       3.640851        99.0726 
 118   0.0000       3.703066       100.7656 
 119   0.0000       3.703066       100.7656 
 120   0.0000       3.707275       100.8801 
 121   0.0000       3.707275       100.8801 
 122   0.0000       3.711209       100.9871 
 123   0.0000       3.711313       100.9899 
 124   0.0000       3.732088       101.5553 
 125   0.0000       3.732088       101.5553 
 126   0.0000       3.773190       102.6737 
 127   0.0000       3.773190       102.6737 
 128   0.0000       3.805776       103.5604 
 129   0.0000       3.805919       103.5643 
 130   0.0000       3.853834       104.8682 
 131   0.0000       3.916522       106.5740 
 132   0.0000       4.007698       109.0550 
 133   0.0000       4.007698       109.0550 
 134   0.0000       4.102899       111.6456 
 135   0.0000       4.237919       115.3196 
 136   0.0000       4.239759       115.3697 
 137   0.0000       4.239759       115.3697 
 138   0.0000       4.245093       115.5148 
 139   0.0000       4.245168       115.5169 
 140   0.0000       4.251063       115.6773 
 141   0.0000       4.251063       115.6773 
 142   0.0000       4.251167       115.6801 
 143   0.0000       4.251167       115.6801 
 144   0.0000       4.251279       115.6832 
 145   0.0000       4.251344       115.6850 
 146   0.0000       4.255147       115.7884 
 147   0.0000       4.255147       115.7884 
 148   0.0000       4.255582       115.8003 
 149   0.0000       4.255582       115.8003 
 150   0.0000       4.270672       116.2109 
 151   0.0000       4.270672       116.2109 
 152   0.0000       4.270862       116.2161 
 153   0.0000       4.270966       116.2189 
 154   0.0000       4.277758       116.4037 
 155   0.0000       4.278374       116.4205 
 156   0.0000       4.329504       117.8118 
 157   0.0000       4.329504       117.8118 
 158   0.0000       4.342785       118.1732 
 159   0.0000       4.342785       118.1732 
 160   0.0000       4.561990       124.1381 
 161   0.0000       4.573342       124.4470 
 162   0.0000      27.283688       742.4269 
 163   0.0000      27.283688       742.4269 
 164   0.0000      27.610134       751.3100 
 165   0.0000      27.610134       751.3100 
 166   0.0000      27.851366       757.8742 
 167   0.0000      27.851366       757.8742 
 168   0.0000      28.183334       766.9075 
 169   0.0000      28.571703       777.4756 
 170   0.0000      31.467382       856.2710 
 171   0.0000      44.030430      1198.1289 
 172   0.0000      44.324638      1206.1347 
 173   0.0000      44.728617      1217.1276 
 174   0.0000     205.148115      5582.3640 
 175   0.0000     205.273596      5585.7785 
 176   0.0000     205.454640      5590.7050 

                    ********************************
                    * MULLIKEN POPULATION ANALYSIS *
                    ********************************

--------------------------------------------
MULLIKEN ATOMIC CHARGES AND SPIN POPULATIONS
--------------------------------------------
   0 Au:   -0.151059   -0.009886
   1 Au:    0.075530    0.504943
   2 Au:    0.075529    0.504943
Sum of atomic charges         :    0.0000000
Sum of atomic spin populations:    1.0000000

-----------------------------------------------------
MULLIKEN REDUCED ORBITAL CHARGES AND SPIN POPULATIONS
-----------------------------------------------------
CHARGE
  0 Aus       :     3.114288  s :     3.114288
      pz      :     2.162506  p :     6.188405
      px      :     2.012949
      py      :     2.012949
      dz2     :     1.884733  d :     9.836027
      dxz     :     1.976471
      dyz     :     1.976471
      dx2y2   :     1.999176
      dxy     :     1.999176
      f0      :     0.005195  f :     0.012097
      f+1     :     0.003162
      f-1     :     0.003162
      f+2     :     0.000289
      f-2     :     0.000289
      f+3     :     0.000000
      f-3     :     0.000000
      g0      :     0.000103  g :     0.000243
      g+1     :     0.000060
      g-1     :     0.000060
      g+2     :     0.000010
      g-2     :     0.000010
      g+3     :     0.000000
      g-3     :     0.000000
      g+4     :     0.000000
      g-4     :     0.000000
  1 Aus       :     2.940804  s :     2.940804
      pz      :     2.035598  p :     6.055645
      px      :     2.010023
      py      :     2.010023
      dz2     :     1.937729  d :     9.921456
      dxz     :     1.991811
      dyz     :     1.991811
      dx2y2   :     2.000053
      dxy     :     2.000053
      f0      :     0.002411  f :     0.006451
      f+1     :     0.001814
      f-1     :     0.001814
      f+2     :     0.000206
      f-2     :     0.000206
      f+3     :     0.000000
      f-3     :     0.000000
      g0      :     0.000046  g :     0.000115
      g+1     :     0.000030
      g-1     :     0.000030
      g+2     :     0.000004
      g-2     :     0.000004
      g+3     :     0.000000
      g-3     :     0.000000
      g+4     :     0.000000
      g-4     :     0.000000
  2 Aus       :     2.940804  s :     2.940804
      pz      :     2.035598  p :     6.055645
      px      :     2.010023
      py      :     2.010023
      dz2     :     1.937729  d :     9.921456
      dxz     :     1.991811
      dyz     :     1.991811
      dx2y2   :     2.000053
      dxy     :     2.000053
      f0      :     0.002411  f :     0.006451
      f+1     :     0.001814
      f-1     :     0.001814
      f+2     :     0.000206
      f-2     :     0.000206
      f+3     :     0.000000
      f-3     :     0.000000
      g0      :     0.000046  g :     0.000115
      g+1     :     0.000030
      g-1     :     0.000030
      g+2     :     0.000004
      g-2     :     0.000004
      g+3     :     0.000000
      g-3     :     0.000000
      g+4     :     0.000000
      g-4     :     0.000000

SPIN
  0 Aus       :    -0.133886  s :    -0.133886
      pz      :     0.142727  p :     0.142626
      px      :    -0.000050
      py      :    -0.000050
      dz2     :    -0.016814  d :    -0.019136
      dxz     :    -0.001310
      dyz     :    -0.001310
      dx2y2   :     0.000149
      dxy     :     0.000149
      f0      :     0.000326  f :     0.000511
      f+1     :     0.000081
      f-1     :     0.000081
      f+2     :     0.000011
      f-2     :     0.000011
      f+3     :    -0.000000
      f-3     :    -0.000000
      g0      :    -0.000001  g :    -0.000001
      g+1     :     0.000000
      g-1     :     0.000000
      g+2     :    -0.000000
      g-2     :    -0.000000
      g+3     :    -0.000000
      g-3     :    -0.000000
      g+4     :    -0.000000
      g-4     :    -0.000000
  1 Aus       :     0.525608  s :     0.525608
      pz      :    -0.009851  p :    -0.007912
      px      :     0.000969
      py      :     0.000969
      dz2     :    -0.011908  d :    -0.012808
      dxz     :    -0.000368
      dyz     :    -0.000368
      dx2y2   :    -0.000081
      dxy     :    -0.000082
      f0      :    -0.000024  f :     0.000057
      f+1     :     0.000039
      f-1     :     0.000039
      f+2     :     0.000002
      f-2     :     0.000002
      f+3     :    -0.000000
      f-3     :    -0.000000
      g0      :    -0.000001  g :    -0.000002
      g+1     :    -0.000000
      g-1     :    -0.000000
      g+2     :    -0.000000
      g-2     :    -0.000000
      g+3     :    -0.000000
      g-3     :    -0.000000
      g+4     :     0.000000
      g-4     :    -0.000000
  2 Aus       :     0.525608  s :     0.525608
      pz      :    -0.009851  p :    -0.007912
      px      :     0.000969
      py      :     0.000969
      dz2     :    -0.011908  d :    -0.012808
      dxz     :    -0.000368
      dyz     :    -0.000368
      dx2y2   :    -0.000081
      dxy     :    -0.000082
      f0      :    -0.000024  f :     0.000057
      f+1     :     0.000039
      f-1     :     0.000039
      f+2     :     0.000002
      f-2     :     0.000002
      f+3     :    -0.000000
      f-3     :    -0.000000
      g0      :    -0.000001  g :    -0.000002
      g+1     :    -0.000000
      g-1     :    -0.000000
      g+2     :    -0.000000
      g-2     :    -0.000000
      g+3     :    -0.000000
      g-3     :    -0.000000
      g+4     :     0.000000
      g-4     :    -0.000000


                     *******************************
                     * LOEWDIN POPULATION ANALYSIS *
                     *******************************

-------------------------------------------
LOEWDIN ATOMIC CHARGES AND SPIN POPULATIONS
-------------------------------------------
   0 Au:   -0.199606    0.284876
   1 Au:    0.099803    0.357562
   2 Au:    0.099803    0.357562

----------------------------------------------------
LOEWDIN REDUCED ORBITAL CHARGES AND SPIN POPULATIONS
----------------------------------------------------
CHARGE
  0 Aus       :     2.841649  s :     2.841649
      pz      :     2.392782  p :     6.429509
      px      :     2.018363
      py      :     2.018363
      dz2     :     1.974932  d :     9.903959
      dxz     :     1.965358
      dyz     :     1.965358
      dx2y2   :     1.999155
      dxy     :     1.999155
      f0      :     0.012521  f :     0.024139
      f+1     :     0.005388
      f-1     :     0.005388
      f+2     :     0.000421
      f-2     :     0.000421
      f+3     :     0.000000
      f-3     :     0.000000
      g0      :     0.000152  g :     0.000351
      g+1     :     0.000088
      g-1     :     0.000088
      g+2     :     0.000011
      g-2     :     0.000011
      g+3     :     0.000000
      g-3     :     0.000000
      g+4     :     0.000000
      g-4     :     0.000000
  1 Aus       :     2.802573  s :     2.802573
      pz      :     2.107156  p :     6.138888
      px      :     2.015866
      py      :     2.015866
      dz2     :     1.974545  d :     9.946962
      dxz     :     1.986283
      dyz     :     1.986283
      dx2y2   :     1.999925
      dxy     :     1.999925
      f0      :     0.004635  f :     0.011604
      f+1     :     0.003209
      f-1     :     0.003209
      f+2     :     0.000275
      f-2     :     0.000275
      f+3     :     0.000000
      f-3     :     0.000000
      g0      :     0.000073  g :     0.000170
      g+1     :     0.000043
      g-1     :     0.000043
      g+2     :     0.000005
      g-2     :     0.000005
      g+3     :     0.000000
      g-3     :     0.000000
      g+4     :     0.000000
      g-4     :     0.000000
  2 Aus       :     2.802573  s :     2.802573
      pz      :     2.107156  p :     6.138888
      px      :     2.015866
      py      :     2.015866
      dz2     :     1.974545  d :     9.946962
      dxz     :     1.986283
      dyz     :     1.986283
      dx2y2   :     1.999925
      dxy     :     1.999925
      f0      :     0.004635  f :     0.011604
      f+1     :     0.003209
      f-1     :     0.003209
      f+2     :     0.000275
      f-2     :     0.000275
      f+3     :     0.000000
      f-3     :     0.000000
      g0      :     0.000073  g :     0.000170
      g+1     :     0.000043
      g-1     :     0.000043
      g+2     :     0.000005
      g-2     :     0.000005
      g+3     :     0.000000
      g-3     :     0.000000
      g+4     :     0.000000
      g-4     :     0.000000

SPIN
  0 Aus       :    -0.071276  s :    -0.071276
      pz      :     0.353116  p :     0.353197
      px      :     0.000040
      py      :     0.000040
      dz2     :     0.004365  d :     0.000702
      dxz     :    -0.001839
      dyz     :    -0.001839
      dx2y2   :     0.000007
      dxy     :     0.000007
      f0      :     0.002020  f :     0.002249
      f+1     :     0.000112
      f-1     :     0.000112
      f+2     :     0.000003
      f-2     :     0.000003
      f+3     :    -0.000000
      f-3     :    -0.000000
      g0      :     0.000002  g :     0.000004
      g+1     :     0.000001
      g-1     :     0.000001
      g+2     :    -0.000000
      g-2     :    -0.000000
      g+3     :    -0.000000
      g-3     :    -0.000000
      g+4     :    -0.000000
      g-4     :    -0.000000
  1 Aus       :     0.390329  s :     0.390329
      pz      :    -0.022564  p :    -0.021230
      px      :     0.000667
      py      :     0.000667
      dz2     :    -0.011491  d :    -0.011191
      dxz     :     0.000155
      dyz     :     0.000155
      dx2y2   :    -0.000005
      dxy     :    -0.000005
      f0      :    -0.000383  f :    -0.000341
      f+1     :     0.000021
      f-1     :     0.000021
      f+2     :     0.000000
      f-2     :     0.000000
      f+3     :    -0.000000
      f-3     :    -0.000000
      g0      :    -0.000004  g :    -0.000005
      g+1     :    -0.000000
      g-1     :    -0.000000
      g+2     :    -0.000000
      g-2     :    -0.000000
      g+3     :    -0.000000
      g-3     :    -0.000000
      g+4     :     0.000000
      g-4     :    -0.000000
  2 Aus       :     0.390329  s :     0.390329
      pz      :    -0.022564  p :    -0.021230
      px      :     0.000667
      py      :     0.000667
      dz2     :    -0.011491  d :    -0.011191
      dxz     :     0.000155
      dyz     :     0.000155
      dx2y2   :    -0.000005
      dxy     :    -0.000005
      f0      :    -0.000383  f :    -0.000341
      f+1     :     0.000021
      f-1     :     0.000021
      f+2     :     0.000000
      f-2     :     0.000000
      f+3     :    -0.000000
      f-3     :    -0.000000
      g0      :    -0.000004  g :    -0.000005
      g+1     :    -0.000000
      g-1     :    -0.000000
      g+2     :    -0.000000
      g-2     :    -0.000000
      g+3     :    -0.000000
      g-3     :    -0.000000
      g+4     :     0.000000
      g-4     :    -0.000000


                      *****************************
                      * MAYER POPULATION ANALYSIS *
                      *****************************

  NA   - Mulliken gross atomic population
  ZA   - Total nuclear charge
  QA   - Mulliken gross atomic charge
  VA   - Mayer's total valence
  BVA  - Mayer's bonded valence
  FA   - Mayer's free valence

  ATOM       NA         ZA         QA         VA         BVA        FA
  0 Au    19.1511    19.0000    -0.1511     1.4640     1.4206     0.0434
  1 Au    18.9245    19.0000     0.0755     1.1715     0.8798     0.2917
  2 Au    18.9245    19.0000     0.0755     1.1715     0.8798     0.2917

  Mayer bond orders larger than 0.100000
B(  0-Au,  1-Au) :   0.7103 B(  0-Au,  2-Au) :   0.7103 B(  1-Au,  2-Au) :   0.1695 


-------
TIMINGS
-------

Total SCF time: 0 days 0 hours 0 min 15 sec 

Total time                  ....      15.043 sec
Sum of individual times     ....      14.761 sec  ( 98.1%)

Fock matrix formation       ....      13.077 sec  ( 86.9%)
  XC integration            ....       1.559 sec  ( 11.9% of F)
    Basis function eval.    ....       0.082 sec  (  5.3% of XC)
    Density eval.           ....       0.211 sec  ( 13.5% of XC)
    XC-Functional eval.     ....       0.050 sec  (  3.2% of XC)
    XC-Potential eval.      ....       0.454 sec  ( 29.1% of XC)
Diagonalization             ....       0.178 sec  (  1.2%)
Density matrix formation    ....       0.028 sec  (  0.2%)
Population analysis         ....       0.010 sec  (  0.1%)
Initial guess               ....       0.999 sec  (  6.6%)
Orbital Transformation      ....       0.000 sec  (  0.0%)
Orbital Orthonormalization  ....       0.000 sec  (  0.0%)
DIIS solution               ....       0.061 sec  (  0.4%)
Grid generation             ....       0.409 sec  (  2.7%)

-------------------------   --------------------
FINAL SINGLE POINT ENERGY      -406.956622187877
-------------------------   --------------------


----------------------------------------------------------------------------
                           ORCA NUMERICAL GRADIENT
                              (24-process run)
----------------------------------------------------------------------------

I state                        ... 1
J state                        ... 0
Number of atoms                ... 3
Derivative's order of accuracy ... 2
Central differences            ... used
Number of displacements        ... 18
Numerical increment            ... 5.000e-03 bohr
Translation invariance         ... used

The output will be reduced. Please look at the following files:
SCF program output             ... >Au03N0_LIN.lastscf
Integral program output        ... >Au03N0_LIN.lastint
Gradient program output        ... >Au03N0_LIN.lastgrad


     Note:   There are more processes than displacements to do
     ===>:   Reducing number of processes to   6

             <<<Displacing   2/coordinate 3 (+)>>>
             <<<Displacing   2/coordinate 2 (+)>>>
             <<<Displacing   3/coordinate 3 (+)>>>
             <<<Displacing   3/coordinate 1 (+)>>>
             <<<Displacing   2/coordinate 1 (+)>>>
             <<<Displacing   3/coordinate 2 (+)>>>
             <<<Displacing   3/coordinate 2 (-)>>>
             <<<Displacing   3/coordinate 1 (-)>>>
             <<<Displacing   2/coordinate 2 (-)>>>
             <<<Displacing   2/coordinate 1 (-)>>>
             <<<Displacing   2/coordinate 3 (-)>>>
             <<<Displacing   3/coordinate 3 (-)>>>

------------------------------
CARTESIAN GRADIENT (NUMERICAL)
-------------------------------
   1   Au  :   -0.000000444    0.000002789    0.000000898
   2   Au  :    0.000000703   -0.000001425   -0.008885741
   3   Au  :   -0.000000259   -0.000001364    0.008884843

Norm of the cartesian gradient     ...    0.012565701
RMS gradient                       ...    0.004188567
MAX gradient                       ...    0.008885741

-------
TIMINGS
-------

Total numerical gradient time      ...      216.214 sec

------------------------------------------------------------------------------
                         ORCA GEOMETRY RELAXATION STEP
------------------------------------------------------------------------------

Reading the OPT-File                    .... done
Getting information on internals        .... done
Copying old internal coords+grads       .... done
Making the new internal coordinates     .... (new redundants).... done
Validating the new internal coordinates .... (new redundants).... done
Calculating the B-matrix                .... done
Calculating the G,G- and P matrices     .... done
Transforming gradient to internals      .... done
Projecting the internal gradient        .... done
Number of atoms                         ....   3
Number of internal coordinates          ....   4
Current Energy                          ....  -406.956622188 Eh
Current gradient norm                   ....     0.012565701 Eh/bohr
Maximum allowed component of the step   ....  0.300
Current trust radius                    ....  0.300
Evaluating the initial hessian          ....  (Almloef) done
Projecting the Hessian                  .... done
Forming the augmented Hessian           .... done
Diagonalizing the augmented Hessian     .... done
Last element of RFO vector              ....  0.884733850
Lowest eigenvalues of augmented Hessian:
 -0.006619878  0.017232047  0.023851925  0.163789689
Length of the computed step             ....  0.526821227
Warning: the length of the step is outside the trust region - taking restricted step instead
The input lambda is                     ....    -0.006620
   iter:   1  x=   -0.014679  g=   23.271967 f(x)=     0.187541
   iter:   2  x=   -0.021373  g=    9.718507 f(x)=     0.065062
   iter:   3  x=   -0.024278  g=    5.488665 f(x)=     0.015945
   iter:   4  x=   -0.024649  g=    4.415040 f(x)=     0.001635
   iter:   5  x=   -0.024654  g=    4.298961 f(x)=     0.000022
   iter:   6  x=   -0.024654  g=    4.297413 f(x)=     0.000000
   iter:   7  x=   -0.024654  g=    4.297413 f(x)=     0.000000
The output lambda is                    ....    -0.024654 (7 iterations)
The final length of the internal step   ....  0.300000000
Converting the step to cartesian space:
 Initial RMS(Int)=    0.1500000000
Transforming coordinates:
 Iter   0:  RMS(Cart)=    0.0942809042 RMS(Int)=    0.1414213562
 Iter   1:  RMS(Cart)=    0.0057190965 RMS(Int)=    0.0085786469
 Iter   2:  RMS(Cart)=    0.0000006545 RMS(Int)=    0.0000004783
 Iter   3:  RMS(Cart)=    0.0000005243 RMS(Int)=    0.0000003834
 Iter   4:  RMS(Cart)=    0.0000004200 RMS(Int)=    0.0000003070
 Iter   5:  RMS(Cart)=    0.0000003364 RMS(Int)=    0.0000002459
 Iter   6:  RMS(Cart)=    0.0000002695 RMS(Int)=    0.0000001970
 Iter   7:  RMS(Cart)=    0.0000002159 RMS(Int)=    0.0000001578
 Iter   8:  RMS(Cart)=    0.0000001729 RMS(Int)=    0.0000001264
 Iter   9:  RMS(Cart)=    0.0000001385 RMS(Int)=    0.0000001012
 Iter  10:  RMS(Cart)=    0.0000001110 RMS(Int)=    0.0000000812
 Iter  11:  RMS(Cart)=    0.0000000889 RMS(Int)=    0.0000000649
done
Storing new coordinates                 .... done

                                .--------------------.
          ----------------------|Geometry convergence|-------------------------
          Item                value                   Tolerance       Converged
          ---------------------------------------------------------------------
          RMS gradient        0.0062828502            0.0001000000      NO
          MAX gradient        0.0088857411            0.0003000000      NO
          RMS step            0.1500000000            0.0020000000      NO
          MAX step            0.2121427571            0.0040000000      NO
          ........................................................
          Max(Bonds)      0.1123      Max(Angles)    0.00
          Max(Dihed)        0.00      Max(Improp)    0.00
          ---------------------------------------------------------------------

The optimization has not yet converged - more geometry cycles are needed


    ---------------------------------------------------------------------------
                         Redundant Internal Coordinates
                            (Angstroem and degrees)

        Definition                    Value    dE/dq     Step     New-Value
    ----------------------------------------------------------------------------
     1. B(Au  1,Au  0)                2.5474 -0.008886  0.1123    2.6597   
     2. B(Au  2,Au  0)                2.5474 -0.008885  0.1122    2.6597   
     3. L(Au  1,Au  0,Au  2, 2)       180.00  0.000000   -0.00    180.00   
     4. L(Au  1,Au  0,Au  2, 1)       180.00  0.000001   -0.00    180.00   
    ----------------------------------------------------------------------------

         *************************************************************
         *                GEOMETRY OPTIMIZATION CYCLE   2            *
         *************************************************************
---------------------------------
CARTESIAN COORDINATES (ANGSTROEM)
---------------------------------
  Au     0.000001   -0.000006   -0.000004
  Au    -0.000000    0.000003    2.659671
  Au    -0.000000    0.000003   -2.659668

----------------------------
CARTESIAN COORDINATES (A.U.)
----------------------------
  NO LB      ZA    FRAG     MASS         X           Y           Z
   0 Au   19.0000*   0   196.966    0.000002   -0.000012   -0.000007
   1 Au   19.0000*   0   196.966   -0.000001    0.000006    5.026050
   2 Au   19.0000*   0   196.966   -0.000001    0.000006   -5.026043
* core charge reduced due to ECP

--------------------------------
INTERNAL COORDINATES (ANGSTROEM)
--------------------------------
 Au     0   0   0     0.000000000000     0.00000000     0.00000000
 Au     1   0   0     2.659675111953     0.00000000     0.00000000
 Au     1   2   0     2.659663763154   179.99960058     0.00000000

---------------------------
INTERNAL COORDINATES (A.U.)
---------------------------
 Au     0   0   0     0.000000000000     0.00000000     0.00000000
 Au     1   0   0     5.026057566798     0.00000000     0.00000000
 Au     1   2   0     5.026036120675   179.99960058     0.00000000



           ************************************************************
           *        Program running with 24 parallel MPI-processes    *
           *              working on a common directory               *
           ************************************************************


           ************************************************************
           *        Program running with 24 parallel MPI-processes    *
           *              working on a common directory               *
           ************************************************************

Diagonalization of the overlap matrix:
Smallest eigenvalue                        ... 1.004e-03
Time for diagonalization                   ...    0.006 sec
Threshold for overlap eigenvalues          ... 1.000e-08
Number of eigenvalues below threshold      ... 0
Time for construction of square roots      ...    0.003 sec
Total time needed                          ...    0.010 sec

-------------------
DFT GRID GENERATION
-------------------

General Integration Accuracy     IntAcc      ...  4.670
Radial Grid Type                 RadialGrid  ... Gauss-Chebyshev
Angular Grid (max. acc.)         AngularGrid ... Lebedev-302
Angular grid pruning method      GridPruning ... 3 (G Style)
Weight generation scheme         WeightScheme... Becke
Basis function cutoff            BFCut       ...    1.0000e-11
Integration weight cutoff        WCut        ...    1.0000e-14
Grids for H and He will be reduced by one unit

# of grid points (after initial pruning)     ...  34956 (   0.0 sec)
# of grid points (after weights+screening)   ...  34728 (   0.0 sec)
nearest neighbour list constructed           ...    0.0 sec
Grid point re-assignment to atoms done       ...    0.0 sec
Grid point division into batches done        ...    0.3 sec
Reduced shell lists constructed in    0.3 sec

Total number of grid points                  ...    34728
Total number of batches                      ...      543
Average number of points per batch           ...       63
Average number of grid points per atom       ...    11576
Average number of shells per batch           ...    13.54 (26.55%)
Average number of basis functions per batch  ...    41.12 (23.23%)
Average number of large shells per batch     ...    10.33 (76.31%)
Average number of large basis fcns per batch ...    28.17 (68.49%)
Maximum spatial batch extension              ...  37.74, 37.74,  4.83 au
Average spatial batch extension              ...   0.55,  0.55,  0.19 au

Time for grid setup =    0.359 sec

--------------
SCF ITERATIONS
--------------
ITER       Energy         Delta-E        Max-DP      RMS-DP      [F,P]     Damp
               ***  Starting incremental Fock matrix formation  ***
  0   -407.1682102759   0.000000000000 0.00266555  0.00005547  0.2159910 0.7000
  1   -407.1686234807  -0.000413204805 0.00280642  0.00005333  0.1514601 0.7000
                               ***Turning on DIIS***
  2   -407.1689287205  -0.000305239833 0.00244397  0.00004422  0.1061236 0.7000
  3   -407.1691522249  -0.000223504368 0.00783791  0.00013210  0.0743593 0.0000
  4   -407.1697351750  -0.000582950073 0.00342177  0.00004325  0.0008676 0.0000
  5   -407.1697505958  -0.000015420865 0.00167206  0.00002014  0.0004827 0.0000
  6   -407.1697501379   0.000000457913 0.00185420  0.00001927  0.0003472 0.0000
  7   -407.1697469358   0.000003202103 0.00050970  0.00000648  0.0001625 0.0000
  8   -407.1697448349   0.000002100928 0.00025811  0.00000274  0.0001005 0.0000
  9   -407.1697437281   0.000001106736 0.00017022  0.00000183  0.0000190 0.0000
 10   -407.1697428909   0.000000837226 0.00005940  0.00000061  0.0000057 0.0000
 11   -407.1697425036   0.000000387344 0.00002888  0.00000033  0.0000027 0.0000
 12   -407.1697423127   0.000000190870 0.00001999  0.00000022  0.0000019 0.0000
                            ***DIIS convergence achieved***

               *****************************************************
               *                     SUCCESS                       *
               *           SCF CONVERGED AFTER  13 CYCLES          *
               *****************************************************


Setting up the DFT-NL grid :

General Integration Accuracy     IntAcc      ...  4.340
Radial Grid Type                 RadialGrid  ... Gauss-Chebyshev
Angular Grid (max. acc.)         AngularGrid ... Lebedev-110
Angular grid pruning method      GridPruning ... 3 (G Style)
Weight generation scheme         WeightScheme... Becke
Basis function cutoff            BFCut       ...    1.0000e-11
Integration weight cutoff        WCut        ...    1.0000e-14
Grids for H and He will be reduced by one unit

# of grid points (after initial pruning)     ...  10590 (   0.0 sec)
# of grid points (after weights+screening)   ...  10522 (   0.0 sec)
nearest neighbour list constructed           ...    0.0 sec
Grid point re-assignment to atoms done       ...    0.0 sec
Grid point division into batches done        ...    0.0 sec
Reduced shell lists constructed in    0.0 sec

Total number of grid points                  ...    10522
Total number of batches                      ...      165
Average number of points per batch           ...       63
Average number of grid points per atom       ...     3507
Average number of shells per batch           ...    19.12 (37.50%)
Average number of basis functions per batch  ...    61.88 (34.96%)
Average number of large shells per batch     ...    15.75 (82.35%)
Average number of large basis fcns per batch ...    45.75 (73.94%)
Maximum spatial batch extension              ...  26.72, 49.51,  4.96 au
Average spatial batch extension              ...   0.68,  1.05,  0.20 au

Final grid set up in    0.0 sec

-------------------------------------------------------------------------------
                         DFT-NL dispersion correction                          
-------------------------------------------------------------------------------

SC Energy -407.169742153 
NL    Energy 0.213410080 
SC+NL Energy -406.956332073 
NL done in    0.0 sec
-------------------------------------------------------------------------------
Total Energy       :         -406.95633207 Eh          -11073.84478 eV
  Last Energy change         ...    1.5981e-07  Tolerance :   1.0000e-08
  Last MAX-Density change    ...    1.5054e-05  Tolerance :   1.0000e-07
             **** THE GBW FILE WAS UPDATED (Au03N0_LIN.gbw) ****
             **** DENSITY FILE WAS UPDATED (Au03N0_LIN.scfp) ****
             **** ENERGY FILE WAS UPDATED (Au03N0_LIN.en.tmp) ****
----------------------
UHF SPIN CONTAMINATION
----------------------

Warning: in a DFT calculation there is little theoretical justification to 
         calculate <S**2> as in Hartree-Fock theory. We will do it anyways
         but you should keep in mind that the values have only limited relevance

Expectation value of <S**2>     :     0.801568
Ideal value S*(S+1) for S=0.5   :     0.750000
Deviation                       :     0.051568

             **** THE GBW FILE WAS UPDATED (Au03N0_LIN.gbw) ****
             **** DENSITY FILE WAS UPDATED (Au03N0_LIN.scfp) ****
Total SCF time: 0 days 0 hours 0 min 8 sec 

-------------------------   --------------------
FINAL SINGLE POINT ENERGY      -406.956332072698
-------------------------   --------------------


----------------------------------------------------------------------------
                           ORCA NUMERICAL GRADIENT
                              (24-process run)
----------------------------------------------------------------------------

I state                        ... 1
J state                        ... 0
Number of atoms                ... 3
Derivative's order of accuracy ... 2
Central differences            ... used
Number of displacements        ... 18
Numerical increment            ... 5.000e-03 bohr
Translation invariance         ... used

The output will be reduced. Please look at the following files:
SCF program output             ... >Au03N0_LIN.lastscf
Integral program output        ... >Au03N0_LIN.lastint
Gradient program output        ... >Au03N0_LIN.lastgrad


     Note:   There are more processes than displacements to do
     ===>:   Reducing number of processes to   6

             <<<Displacing   2/coordinate 1 (+)>>>
             <<<Displacing   2/coordinate 3 (+)>>>
             <<<Displacing   2/coordinate 2 (+)>>>
             <<<Displacing   3/coordinate 2 (+)>>>
             <<<Displacing   3/coordinate 3 (+)>>>
             <<<Displacing   3/coordinate 1 (+)>>>
             <<<Displacing   2/coordinate 2 (-)>>>
             <<<Displacing   3/coordinate 2 (-)>>>
             <<<Displacing   3/coordinate 1 (-)>>>
             <<<Displacing   2/coordinate 1 (-)>>>
             <<<Displacing   2/coordinate 3 (-)>>>
             <<<Displacing   3/coordinate 3 (-)>>>

------------------------------
CARTESIAN GRADIENT (NUMERICAL)
-------------------------------
   1   Au  :   -0.000000176   -0.000000218   -0.000000760
   2   Au  :    0.000000012   -0.000000227    0.008672257
   3   Au  :    0.000000164    0.000000445   -0.008671496

Norm of the cartesian gradient     ...    0.012263885
RMS gradient                       ...    0.004087962
MAX gradient                       ...    0.008672257

-------
TIMINGS
-------

Total numerical gradient time      ...      204.681 sec

------------------------------------------------------------------------------
                         ORCA GEOMETRY RELAXATION STEP
------------------------------------------------------------------------------

Reading the OPT-File                    .... done
Getting information on internals        .... done
Copying old internal coords+grads       .... done
Making the new internal coordinates     .... (new redundants).... done
Validating the new internal coordinates .... (new redundants).... done
Calculating the B-matrix                .... done
Calculating the G,G- and P matrices     .... done
Transforming gradient to internals      .... done
Projecting the internal gradient        .... done
Number of atoms                         ....   3
Number of internal coordinates          ....   4
Current Energy                          ....  -406.956332073 Eh
Current gradient norm                   ....     0.012263885 Eh/bohr
Maximum allowed component of the step   ....  0.300
Current trust radius                    ....  0.300
Updating the Hessian (BFGS)             .... done
Forming the augmented Hessian           .... done
Diagonalizing the augmented Hessian     .... done
Last element of RFO vector              ....  0.989642160
Lowest eigenvalues of augmented Hessian:
 -0.001778984  0.017232047  0.084544269  0.163789688
Length of the computed step             ....  0.145058742
The final length of the internal step   ....  0.145058742
Converting the step to cartesian space:
 Initial RMS(Int)=    0.0725293708
Transforming coordinates:
 Iter   0:  RMS(Cart)=    0.0483529139 RMS(Int)=    0.0725293708
 Iter   1:  RMS(Cart)=    0.0000000732 RMS(Int)=    0.0000000548
done
Storing new coordinates                 .... done

                                .--------------------.
          ----------------------|Geometry convergence|-------------------------
          Item                value                   Tolerance       Converged
          ---------------------------------------------------------------------
          Energy change       0.0002901152            0.0000050000      NO
          RMS gradient        0.0061319427            0.0001000000      NO
          MAX gradient        0.0086722566            0.0003000000      NO
          RMS step            0.0725293708            0.0020000000      NO
          MAX step            0.1025756227            0.0040000000      NO
          ........................................................
          Max(Bonds)      0.0543      Max(Angles)    0.00
          Max(Dihed)        0.00      Max(Improp)    0.00
          ---------------------------------------------------------------------

The optimization has not yet converged - more geometry cycles are needed


    ---------------------------------------------------------------------------
                         Redundant Internal Coordinates
                            (Angstroem and degrees)

        Definition                    Value    dE/dq     Step     New-Value
    ----------------------------------------------------------------------------
     1. B(Au  1,Au  0)                2.6597  0.008672 -0.0543    2.6054   
     2. B(Au  2,Au  0)                2.6597  0.008671 -0.0543    2.6054   
     3. L(Au  1,Au  0,Au  2, 2)       180.00  0.000000   -0.00    180.00   
     4. L(Au  1,Au  0,Au  2, 1)       180.00 -0.000000   -0.00    180.00   
    ----------------------------------------------------------------------------

         *************************************************************
         *                GEOMETRY OPTIMIZATION CYCLE   3            *
         *************************************************************


           ************************************************************
           *        Program running with 24 parallel MPI-processes    *
           *              working on a common directory               *
           ************************************************************


           ************************************************************
           *        Program running with 24 parallel MPI-processes    *
           *              working on a common directory               *
           ************************************************************

Diagonalization of the overlap matrix:
Smallest eigenvalue                        ... 8.633e-04
Time for diagonalization                   ...    0.008 sec
Threshold for overlap eigenvalues          ... 1.000e-08
Number of eigenvalues below threshold      ... 0
Time for construction of square roots      ...    0.004 sec
Total time needed                          ...    0.012 sec

-------------------
DFT GRID GENERATION
-------------------

General Integration Accuracy     IntAcc      ...  4.670
Radial Grid Type                 RadialGrid  ... Gauss-Chebyshev
Angular Grid (max. acc.)         AngularGrid ... Lebedev-302
Angular grid pruning method      GridPruning ... 3 (G Style)
Weight generation scheme         WeightScheme... Becke
Basis function cutoff            BFCut       ...    1.0000e-11
Integration weight cutoff        WCut        ...    1.0000e-14
Grids for H and He will be reduced by one unit

# of grid points (after initial pruning)     ...  34956 (   0.0 sec)
# of grid points (after weights+screening)   ...  34728 (   0.0 sec)
nearest neighbour list constructed           ...    0.0 sec
Grid point re-assignment to atoms done       ...    0.0 sec
Grid point division into batches done        ...    0.3 sec
Reduced shell lists constructed in    0.3 sec

Total number of grid points                  ...    34728
[...]
      g+4     :     0.000000
      g-4     :     0.000000
  2 Aus       :     2.939711  s :     2.939711
      pz      :     2.036780  p :     6.054893
      px      :     2.009057
      py      :     2.009057
      dz2     :     1.942537  d :     9.928172
      dxz     :     1.992752
      dyz     :     1.992752
      dx2y2   :     2.000065
      dxy     :     2.000065
      f0      :     0.002094  f :     0.005439
      f+1     :     0.001501
      f-1     :     0.001501
      f+2     :     0.000171
      f-2     :     0.000171
      f+3     :     0.000000
      f-3     :     0.000000
      g0      :     0.000037  g :     0.000091
      g+1     :     0.000024
      g-1     :     0.000024
      g+2     :     0.000003
      g-2     :     0.000003
      g+3     :     0.000000
      g-3     :     0.000000
      g+4     :     0.000000
      g-4     :     0.000000

SPIN
  0 Aus       :    -0.147442  s :    -0.147442
      pz      :     0.142037  p :     0.141864
      px      :    -0.000087
      py      :    -0.000087
      dz2     :    -0.015945  d :    -0.017881
      dxz     :    -0.001107
      dyz     :    -0.001107
      dx2y2   :     0.000139
      dxy     :     0.000139
      f0      :     0.000347  f :     0.000515
      f+1     :     0.000075
      f-1     :     0.000075
      f+2     :     0.000009
      f-2     :     0.000009
      f+3     :    -0.000000
      f-3     :    -0.000000
      g0      :    -0.000000  g :    -0.000001
      g+1     :     0.000000
      g-1     :     0.000000
      g+2     :    -0.000000
      g-2     :    -0.000000
      g+3     :    -0.000000
      g-3     :    -0.000000
      g+4     :    -0.000000
      g-4     :    -0.000000
  1 Aus       :     0.531922  s :     0.531922
      pz      :    -0.009949  p :    -0.008264
      px      :     0.000843
      py      :     0.000843
      dz2     :    -0.011456  d :    -0.012233
      dxz     :    -0.000315
      dyz     :    -0.000315
      dx2y2   :    -0.000074
      dxy     :    -0.000074
      f0      :    -0.000019  f :     0.000045
      f+1     :     0.000032
      f-1     :     0.000032
      f+2     :     0.000000
      f-2     :     0.000000
      f+3     :    -0.000000
      f-3     :    -0.000000
      g0      :    -0.000001  g :    -0.000002
      g+1     :    -0.000000
      g-1     :    -0.000000
      g+2     :    -0.000000
      g-2     :    -0.000000
      g+3     :    -0.000000
      g-3     :    -0.000000
      g+4     :     0.000000
      g-4     :    -0.000000
  2 Aus       :     0.531929  s :     0.531929
      pz      :    -0.009949  p :    -0.008263
      px      :     0.000843
      py      :     0.000843
      dz2     :    -0.011455  d :    -0.012233
      dxz     :    -0.000315
      dyz     :    -0.000315
      dx2y2   :    -0.000074
      dxy     :    -0.000074
      f0      :    -0.000019  f :     0.000045
      f+1     :     0.000032
      f-1     :     0.000032
      f+2     :     0.000000
      f-2     :     0.000000
      f+3     :    -0.000000
      f-3     :    -0.000000
      g0      :    -0.000001  g :    -0.000002
      g+1     :    -0.000000
      g-1     :    -0.000000
      g+2     :    -0.000000
      g-2     :    -0.000000
      g+3     :    -0.000000
      g-3     :    -0.000000
      g+4     :     0.000000
      g-4     :    -0.000000


                     *******************************
                     * LOEWDIN POPULATION ANALYSIS *
                     *******************************

-------------------------------------------
LOEWDIN ATOMIC CHARGES AND SPIN POPULATIONS
-------------------------------------------
   0 Au:   -0.195731    0.268672
   1 Au:    0.097865    0.365658
   2 Au:    0.097866    0.365670

----------------------------------------------------
LOEWDIN REDUCED ORBITAL CHARGES AND SPIN POPULATIONS
----------------------------------------------------
CHARGE
  0 Aus       :     2.846789  s :     2.846789
      pz      :     2.382228  p :     6.415927
      px      :     2.016849
      py      :     2.016849
      dz2     :     1.976217  d :     9.912798
      dxz     :     1.968996
      dyz     :     1.968996
      dx2y2   :     1.999295
      dxy     :     1.999295
      f0      :     0.010666  f :     0.019946
      f+1     :     0.004314
      f-1     :     0.004314
      f+2     :     0.000326
      f-2     :     0.000326
      f+3     :     0.000000
      f-3     :     0.000000
      g0      :     0.000120  g :     0.000272
      g+1     :     0.000067
      g-1     :     0.000067
      g+2     :     0.000009
      g-2     :     0.000009
      g+3     :     0.000000
      g-3     :     0.000000
      g+4     :     0.000000
      g-4     :     0.000000
  1 Aus       :     2.807723  s :     2.807723
      pz      :     2.104182  p :     6.132807
      px      :     2.014312
      py      :     2.014312
      dz2     :     1.976137  d :     9.951927
      dxz     :     1.987938
      dyz     :     1.987938
      dx2y2   :     1.999957
      dxy     :     1.999957
      f0      :     0.003891  f :     0.009546
      f+1     :     0.002603
      f-1     :     0.002603
      f+2     :     0.000224
      f-2     :     0.000224
      f+3     :     0.000000
      f-3     :     0.000000
      g0      :     0.000057  g :     0.000132
      g+1     :     0.000033
      g-1     :     0.000033
      g+2     :     0.000004
      g-2     :     0.000004
      g+3     :     0.000000
      g-3     :     0.000000
      g+4     :     0.000000
      g-4     :     0.000000
  2 Aus       :     2.807726  s :     2.807726
      pz      :     2.104179  p :     6.132802
      px      :     2.014312
      py      :     2.014312
      dz2     :     1.976137  d :     9.951930
      dxz     :     1.987939
      dyz     :     1.987939
      dx2y2   :     1.999957
      dxy     :     1.999957
      f0      :     0.003891  f :     0.009545
      f+1     :     0.002603
      f-1     :     0.002603
      f+2     :     0.000224
      f-2     :     0.000224
      f+3     :     0.000000
      f-3     :     0.000000
      g0      :     0.000057  g :     0.000131
      g+1     :     0.000033
      g-1     :     0.000033
      g+2     :     0.000004
      g-2     :     0.000004
      g+3     :     0.000000
      g-3     :     0.000000
      g+4     :     0.000000
      g-4     :     0.000000

SPIN
  0 Aus       :    -0.080657  s :    -0.080657
      pz      :     0.345088  p :     0.345118
      px      :     0.000015
      py      :     0.000015
      dz2     :     0.005264  d :     0.001999
      dxz     :    -0.001641
      dyz     :    -0.001641
      dx2y2   :     0.000008
      dxy     :     0.000008
      f0      :     0.002017  f :     0.002208
      f+1     :     0.000094
      f-1     :     0.000094
      f+2     :     0.000002
      f-2     :     0.000002
      f+3     :    -0.000000
      f-3     :    -0.000000
      g0      :     0.000003  g :     0.000004
      g+1     :     0.000001
      g-1     :     0.000001
      g+2     :    -0.000000
      g-2     :    -0.000000
      g+3     :    -0.000000
      g-3     :    -0.000000
      g+4     :    -0.000000
      g-4     :    -0.000000
  1 Aus       :     0.400557  s :     0.400557
      pz      :    -0.024371  p :    -0.023218
      px      :     0.000576
      py      :     0.000576
      dz2     :    -0.011681  d :    -0.011343
      dxz     :     0.000172
      dyz     :     0.000172
      dx2y2   :    -0.000004
      dxy     :    -0.000004
      f0      :    -0.000365  f :    -0.000333
      f+1     :     0.000017
      f-1     :     0.000017
      f+2     :    -0.000001
      f-2     :    -0.000001
      f+3     :    -0.000000
      f-3     :    -0.000000
      g0      :    -0.000003  g :    -0.000004
      g+1     :    -0.000000
      g-1     :    -0.000000
      g+2     :    -0.000000
      g-2     :    -0.000000
      g+3     :    -0.000000
      g-3     :    -0.000000
      g+4     :     0.000000
      g-4     :    -0.000000
  2 Aus       :     0.400569  s :     0.400569
      pz      :    -0.024371  p :    -0.023218
      px      :     0.000576
      py      :     0.000576
      dz2     :    -0.011681  d :    -0.011343
      dxz     :     0.000172
      dyz     :     0.000172
      dx2y2   :    -0.000004
      dxy     :    -0.000004
      f0      :    -0.000365  f :    -0.000333
      f+1     :     0.000017
      f-1     :     0.000017
      f+2     :    -0.000001
      f-2     :    -0.000001
      f+3     :    -0.000000
      f-3     :    -0.000000
      g0      :    -0.000003  g :    -0.000004
      g+1     :    -0.000000
      g-1     :    -0.000000
      g+2     :    -0.000000
      g-2     :    -0.000000
      g+3     :    -0.000000
      g-3     :    -0.000000
      g+4     :     0.000000
      g-4     :    -0.000000


                      *****************************
                      * MAYER POPULATION ANALYSIS *
                      *****************************

  NA   - Mulliken gross atomic population
  ZA   - Total nuclear charge
  QA   - Mulliken gross atomic charge
  VA   - Mayer's total valence
  BVA  - Mayer's bonded valence
  FA   - Mayer's free valence

  ATOM       NA         ZA         QA         VA         BVA        FA
  0 Au    19.1434    19.0000    -0.1434     1.4488     1.4018     0.0470
  1 Au    18.9283    19.0000     0.0717     1.1622     0.8641     0.2981
  2 Au    18.9283    19.0000     0.0717     1.1622     0.8641     0.2981

  Mayer bond orders larger than 0.100000
B(  0-Au,  1-Au) :   0.7009 B(  0-Au,  2-Au) :   0.7009 B(  1-Au,  2-Au) :   0.1632 


-------
TIMINGS
-------

Total SCF time: 0 days 0 hours 0 min 1 sec 

Total time                  ....       1.896 sec
Sum of individual times     ....       1.608 sec  ( 84.8%)

Fock matrix formation       ....       1.132 sec  ( 59.7%)
  XC integration            ....       0.147 sec  ( 13.0% of F)
    Basis function eval.    ....       0.010 sec  (  6.5% of XC)
    Density eval.           ....       0.024 sec  ( 16.4% of XC)
    XC-Functional eval.     ....       0.005 sec  (  3.2% of XC)
    XC-Potential eval.      ....       0.034 sec  ( 23.3% of XC)
Diagonalization             ....       0.016 sec  (  0.9%)
Density matrix formation    ....       0.004 sec  (  0.2%)
Population analysis         ....       0.010 sec  (  0.5%)
Initial guess               ....       0.018 sec  (  0.9%)
Orbital Transformation      ....       0.000 sec  (  0.0%)
Orbital Orthonormalization  ....       0.011 sec  (  0.6%)
DIIS solution               ....       0.003 sec  (  0.1%)
Grid generation             ....       0.426 sec  ( 22.5%)

-------------------------   --------------------
FINAL SINGLE POINT ENERGY      -406.957415766425
-------------------------   --------------------

                                *** OPTIMIZATION RUN DONE ***

                            ***************************************
                            *     ORCA property calculations      *
                            ***************************************

                                    ---------------------
                                    Active property flags
                                    ---------------------
   (+) Dipole Moment


------------------------------------------------------------------------------
                       ORCA ELECTRIC PROPERTIES CALCULATION
------------------------------------------------------------------------------

Dipole Moment Calculation                       ... on
Quadrupole Moment Calculation                   ... off
Polarizability Calculation                      ... off
GBWName                                         ... Au03N0_LIN.gbw
Electron density file                           ... Au03N0_LIN.scfp
The origin for moment calculation is the CENTER OF MASS  = ( 0.000000, -0.000000  0.000000)

-------------
DIPOLE MOMENT
-------------
                                X             Y             Z
Electronic contribution:      0.00000       0.00000      -0.00001
Nuclear contribution   :     -0.00000      -0.00000      -0.00000
                        -----------------------------------------
Total Dipole Moment    :      0.00000       0.00000      -0.00001
                        -----------------------------------------
Magnitude (a.u.)       :      0.00001
Magnitude (Debye)      :      0.00002



--------------------
Rotational spectrum 
--------------------
 
Rotational constants in cm-1: 1087270066.292169     0.006347     0.006347 
Rotational constants in MHz : 32595536568355.226562   190.273487   190.273487 

 Dipole components along the rotational axes: 
x,y,z [a.u.] :    -0.000006     0.000003    -0.000000 
x,y,z [Debye]:    -0.000015     0.000009    -0.000001 

 

----------------------------------------------------------------------------
                           ORCA NUMERICAL FREQUENCIES
                              (24-process run)
----------------------------------------------------------------------------

Number of atoms                ... 3
Central differences            ... used
Number of displacements        ... 18
Numerical increment            ... 5.000e-03 bohr
IR-spectrum generation         ... on
Raman-spectrum generation      ... off
Surface Crossing Hessian       ... off

 WARNING: There are more processes than displacements to do
  ====> : Reducing number of processes to   9

The output will be reduced. Please look at the following files:
SCF program output             ... >Au03N0_LIN.lastscf
Integral program output        ... >Au03N0_LIN.lastint
Gradient program output        ... >Au03N0_LIN.lastgrad
Dipole moment program output   ... >Au03N0_LIN.lastmom
AutoCI program output          ... >Au03N0_LIN.lastautoci


         <<< Energy and Gradient at the input geometry >>>

        <<< Energy and Gradient at displaced geometries >>>
             <<<Displacing   1/coordinate 2 (+)>>>
             <<<Displacing   2/coordinate 2 (+)>>>
             <<<Displacing   3/coordinate 2 (+)>>>
             <<<Displacing   3/coordinate 1 (+)>>>
             <<<Displacing   3/coordinate 3 (+)>>>
             <<<Displacing   1/coordinate 1 (+)>>>
             <<<Displacing   1/coordinate 3 (+)>>>
             <<<Displacing   2/coordinate 1 (+)>>>
             <<<Displacing   2/coordinate 3 (+)>>>
             <<<Displacing   2/coordinate 2 (-)>>>
             <<<Displacing   3/coordinate 2 (-)>>>
             <<<Displacing   3/coordinate 1 (-)>>>
             <<<Displacing   2/coordinate 1 (-)>>>
             <<<Displacing   1/coordinate 1 (-)>>>
             <<<Displacing   1/coordinate 2 (-)>>>
             <<<Displacing   1/coordinate 3 (-)>>>
             <<<Displacing   3/coordinate 3 (-)>>>
             <<<Displacing   2/coordinate 3 (-)>>>

-----------------------
VIBRATIONAL FREQUENCIES
-----------------------

Scaling factor for frequencies =  1.000000000 (already applied!)

   0:         0.00 cm**-1
   1:         0.00 cm**-1
   2:         0.00 cm**-1
   3:         0.00 cm**-1
   4:         0.00 cm**-1
   5:       -29.41 cm**-1 ***imaginary mode***
   6:       -19.15 cm**-1 ***imaginary mode***
   7:       106.41 cm**-1
   8:       151.96 cm**-1


------------
NORMAL MODES
------------

These modes are the cartesian displacements weighted by the diagonal matrix
M(i,i)=1/sqrt(m[i]) where m[i] is the mass of the displaced atom
Thus, these vectors are normalized but *not* orthogonal

                  0          1          2          3          4          5    
      0       0.000000   0.000000   0.000000   0.000000   0.000000  -0.537952
      1       0.000000   0.000000   0.000000   0.000000   0.000000  -0.612467
      2       0.000000   0.000000   0.000000   0.000000   0.000000   0.001396
      3       0.000000   0.000000   0.000000   0.000000   0.000000   0.272350
      4       0.000000   0.000000   0.000000   0.000000   0.000000   0.312948
      5       0.000000   0.000000   0.000000   0.000000   0.000000  -0.000487
      6       0.000000   0.000000   0.000000   0.000000   0.000000   0.253239
      7       0.000000   0.000000   0.000000   0.000000   0.000000   0.315036
      8       0.000000   0.000000   0.000000   0.000000   0.000000  -0.000909
                   6          7          8    
      0      -0.163375  -0.000730  -0.001230
      1       0.046485  -0.000021  -0.000959
      2       0.001552  -0.000260  -0.816494
      3      -0.075489  -0.000182   0.000323
      4      -0.336092  -0.001078  -0.000102
      5       0.001687  -0.706973   0.408477
      6       0.815112   0.002916   0.001981
      7      -0.433668  -0.001417  -0.000287
      8      -0.003239   0.707232   0.408017


-----------
IR SPECTRUM  
-----------

 Mode    freq (cm**-1)   T**2         TX         TY         TZ
-------------------------------------------------------------------
   7:       106.41    0.000550  (  0.000884  -0.000524   0.023432)
   8:       151.96   19.233889  (  0.000979   0.000294   4.385646)

The first frequency considered to be a vibration is 7
The total number of vibrations considered is 2


--------------------------
THERMOCHEMISTRY AT 298.15K
--------------------------

Temperature         ... 298.15 K
Pressure            ... 1.00 atm
Total Mass          ... 590.90 AMU

Throughout the following assumptions are being made:
  (1) The electronic state is orbitally nondegenerate
      but the spin degeneracy is treated
  (2) There are no thermally accessible electronically excited states
  (3) Hindered rotations indicated by low frequency modes are not
      treated as such but are treated as vibrations and this may
      cause some error
  (4) All equations used are the standard statistical mechanics
      equations for an ideal gas
  (5) All vibrations are strictly harmonic

freq.     106.41  E(vib)   ...       0.45 
freq.     151.96  E(vib)   ...       0.40 

------------
INNER ENERGY
------------

The inner energy is: U= E(el) + E(ZPE) + E(vib) + E(rot) + E(trans)
    E(el)   - is the total energy from the electronic structure calculation
              = E(kin-el) + E(nuc-el) + E(el-el) + E(nuc-nuc)
    E(ZPE)  - the the zero temperature vibrational energy from the frequency calculation
    E(vib)  - the the finite temperature correction to E(ZPE) due to population
              of excited vibrational states
    E(rot)  - is the rotational thermal energy
    E(trans)- is the translational thermal energy

Summary of contributions to the inner energy U:
Electronic energy                ...   -406.95741576 Eh
Zero point energy                ...      0.00058861 Eh       0.37 kcal/mol
Thermal vibrational correction   ...      0.00136240 Eh       0.85 kcal/mol
Thermal rotational correction    ...      0.00141627 Eh       0.89 kcal/mol
Thermal translational correction ...      0.00141627 Eh       0.89 kcal/mol
-----------------------------------------------------------------------
Total thermal energy                   -406.95263221 Eh


Summary of corrections to the electronic energy:
(perhaps to be used in another calculation)
Total thermal correction                  0.00419494 Eh       2.63 kcal/mol
Non-thermal (ZPE) correction              0.00058861 Eh       0.37 kcal/mol
-----------------------------------------------------------------------
Total correction                          0.00478355 Eh       3.00 kcal/mol


--------
ENTHALPY
--------

The enthalpy is H = U + kB*T
                kB is Boltzmann's constant
Total free energy                 ...   -406.95263221 Eh 
Thermal Enthalpy correction       ...      0.00094421 Eh       0.59 kcal/mol
-----------------------------------------------------------------------
Total Enthalpy                    ...   -406.95168800 Eh

[file orca_tools/Tool-Symmetry/symmain.cpp, line 3070]: Error (ORCA_SYM): TMoleculeSymmetry::CleanUp molecule is linear but not aligned to z axis!

[file orca_tools/Tool-Symmetry/symmain.cpp, line 3070]: Error (ORCA_SYM): TMoleculeSymmetry::CleanUp molecule is linear but not aligned to z axis!

