
                                 *****************
                                 * O   R   C   A *
                                 *****************

           --- An Ab Initio, DFT and Semiempirical electronic structure package ---

                  #######################################################
                  #                        -***-                        #
                  #          Department of theory and spectroscopy      #
                  #               Directorship: Frank Neese             #
                  #        Max Planck Institute fuer Kohlenforschung    #
                  #                Kaiser Wilhelm Platz 1               #
                  #                 D-45470 Muelheim/Ruhr               #
                  #                      Germany                        #
                  #                                                     #
                  #                  All rights reserved                #
                  #                        -***-                        #
                  #######################################################


                         Program Version 4.2.0 -  RELEASE  -


 With contributions from (in alphabetic order):
   Daniel Aravena         : Magnetic Suceptibility
   Michael Atanasov       : Ab Initio Ligand Field Theory (pilot matlab implementation)
   Alexander A. Auer      : GIAO ZORA, VPT2
   Ute Becker             : Parallelization
   Giovanni Bistoni       : ED, misc. LED, open-shell LED, HFLED
   Martin Brehm           : Molecular dynamics
   Dmytro Bykov           : SCF Hessian
   Vijay G. Chilkuri      : MRCI spin determinant printing, contributions to CSF-ICE
   Dipayan Datta          : RHF DLPNO-CCSD density
   Achintya Kumar Dutta   : EOM-CC, STEOM-CC
   Dmitry Ganyushin       : Spin-Orbit,Spin-Spin,Magnetic field MRCI
   Miquel Garcia          : C-PCM Hessian, Gaussian charge scheme
   Yang Guo               : DLPNO-NEVPT2, CIM, IAO-localization
   Andreas Hansen         : Spin unrestricted coupled pair/coupled cluster methods
   Benjamin Helmich-Paris : CASSCF linear response (MC-RPA)
   Lee Huntington         : MR-EOM, pCC
   Robert Izsak           : Overlap fitted RIJCOSX, COSX-SCS-MP3, EOM
   Christian Kollmar      : KDIIS, OOCD, Brueckner-CCSD(T), CCSD density
   Simone Kossmann        : Meta GGA functionals, TD-DFT gradient, OOMP2, MP2 Hessian
   Martin Krupicka        : AUTO-CI
   Lucas Lang             : DCDCAS
   Dagmar Lenk            : GEPOL surface, SMD
   Dimitrios Liakos       : Extrapolation schemes; Compound Job, initial MDCI parallelization
   Dimitrios Manganas     : Further ROCIS development; embedding schemes
   Dimitrios Pantazis     : SARC Basis sets
   Taras Petrenko         : DFT Hessian,TD-DFT gradient, ASA, ECA, R-Raman, ABS, FL, XAS/XES, NRVS
   Peter Pinski           : DLPNO-MP2, DLPNO-MP2 Gradient
   Christoph Reimann      : Effective Core Potentials
   Marius Retegan         : Local ZFS, SOC
   Christoph Riplinger    : Optimizer, TS searches, QM/MM, DLPNO-CCSD(T), (RO)-DLPNO pert. Triples
   Tobias Risthaus        : Range-separated hybrids, TD-DFT gradient, RPA, STAB
   Michael Roemelt        : Original ROCIS implementation
   Masaaki Saitow         : Open-shell DLPNO-CCSD energy and density
   Barbara Sandhoefer     : DKH picture change effects
   Avijit Sen             : IP-ROCIS
   Kantharuban Sivalingam : CASSCF convergence, NEVPT2, FIC-MRCI
   Bernardo de Souza      : ESD, SOC TD-DFT
   Georgi Stoychev        : AutoAux, RI-MP2 NMR
   Willem Van den Heuvel  : Paramagnetic NMR
   Boris Wezisla          : Elementary symmetry handling
   Frank Wennmohs         : Technical directorship


 We gratefully acknowledge several colleagues who have allowed us to
 interface, adapt or use parts of their codes:
   Stefan Grimme, W. Hujo, H. Kruse,             : VdW corrections, initial TS optimization,
                  C. Bannwarth                     DFT functionals, gCP, sTDA/sTD-DF
   Ed Valeev, F. Pavosevic, A. Kumar             : LibInt (2-el integral package), F12 methods
   Garnet Chan, S. Sharma, J. Yang, R. Olivares  : DMRG
   Ulf Ekstrom                                   : XCFun DFT Library
   Mihaly Kallay                                 : mrcc  (arbitrary order and MRCC methods)
   Andreas Klamt, Michael Diedenhofen            : otool_cosmo (COSMO solvation model)
   Jiri Pittner, Ondrej Demel                    : Mk-CCSD
   Frank Weinhold                                : gennbo (NPA and NBO analysis)
   Christopher J. Cramer and Donald G. Truhlar   : smd solvation model
   Lars Goerigk                                  : TD-DFT with DH, B97 family of functionals
   V. Asgeirsson, H. Jonsson                     : NEB implementation
   FAccTs GmbH                                   : IRC, NEB, NEB-TS, Multilevel, MM, QM/MM, CI optimization
   S Lehtola, MJT Oliveira, MAL Marques          : LibXC Library


 Your calculation uses the libint2 library for the computation of 2-el integrals
 For citations please refer to: http://libint.valeyev.net

 Your ORCA version has been built with support for libXC version: 4.2.3
 For citations please refer to: https://tddft.org/programs/libxc/

 This ORCA versions uses:
   CBLAS   interface :  Fast vector & matrix operations
   LAPACKE interface :  Fast linear algebra routines
   SCALAPACK package :  Parallel linear algebra routines


Your calculation utilizes the DFT-NL dispersion correction.
Cite in your paper:
Vydrov, O. A.; Van Voorhis, T. J. Chem. Phys. 2010, 133, 244103
Hujo, W.; Grimme, S. J. Chem. Theory Comput. 2011, 7, 3866 
   

----- Orbital basis set information -----
Your calculation utilizes the basis: def2-TZVPPD
   F. Weigend and R. Ahlrichs, Phys. Chem. Chem. Phys. 7, 3297 (2005).
   D. Rappoport and F. Furche, J. Chem. Phys. 133 134105 (2010).

----- AuxJK basis set information -----
Your calculation utilizes the auxiliary basis: def2/JK
   H-Ba, Hf-Rn: F. Weigend, J. Comput. Chem. 29, 167 (2008).

================================================================================
                                        WARNINGS
                       Please study these warnings very carefully!
================================================================================


WARNING: Geometry Optimization
  ===> : Switching off AutoStart
         For restart on a previous wavefunction, please use MOREAD

INFO   : the flag for use of LIBINT has been found!

================================================================================
                                       INPUT FILE
================================================================================
NAME = Cu01N0_F.in
|  1> #
|  2> # Cu01N0_F wB97M-V/Def2-TZVPPD
|  3> #
|  4> ! wb97m-v def2-tzvppd def2/jk grid4 nofinalgrid opt xyzfile numfreq numgrad
|  5> 
|  6> *xyz 0 1
|  7> Cu       0.000000    0.000000    0.412716 
|  8> F        0.000000    0.000000   -1.329863 
|  9> *
| 10> 
| 11> %maxcore 5000
| 12> 
| 13> %pal
| 14> nprocs = 24
| 15> end
| 16> 
| 17> 
| 18>                          ****END OF INPUT****
================================================================================

                       *****************************
                       * Geometry Optimization Run *
                       *****************************

Geometry optimization settings:
Update method            Update   .... BFGS
Choice of coordinates    CoordSys .... Z-matrix Internals
Initial Hessian          InHess   .... Almoef's Model

Convergence Tolerances:
Energy Change            TolE     ....  5.0000e-06 Eh
Max. Gradient            TolMAXG  ....  3.0000e-04 Eh/bohr
RMS Gradient             TolRMSG  ....  1.0000e-04 Eh/bohr
Max. Displacement        TolMAXD  ....  4.0000e-03 bohr
RMS Displacement         TolRMSD  ....  2.0000e-03 bohr
Strict Convergence                ....  False
------------------------------------------------------------------------------
                        ORCA OPTIMIZATION COORDINATE SETUP
------------------------------------------------------------------------------

The optimization will be done in new redundant internal coordinates
Making redundant internal coordinates   ...  (new redundants) done
Evaluating the initial hessian          ...  (Almloef) done
Evaluating the coordinates              ...  done
Calculating the B-matrix                .... done
Calculating the G-matrix                .... done
Diagonalizing the G-matrix              .... done
The first mode is                       ....    0
The number of degrees of freedom        ....    1

    -----------------------------------------------------------------
                    Redundant Internal Coordinates


    -----------------------------------------------------------------
         Definition                    Initial Value    Approx d2E/dq
    -----------------------------------------------------------------
      1. B(F   1,Cu  0)                  1.7426         1.440702   
    -----------------------------------------------------------------

Number of atoms                         .... 2
Number of degrees of freedom            .... 1

         *************************************************************
         *                GEOMETRY OPTIMIZATION CYCLE   1            *
         *************************************************************
---------------------------------
CARTESIAN COORDINATES (ANGSTROEM)
---------------------------------
  Cu     0.000000    0.000000    0.412716
  F      0.000000    0.000000   -1.329863

----------------------------
CARTESIAN COORDINATES (A.U.)
----------------------------
  NO LB      ZA    FRAG     MASS         X           Y           Z
   0 Cu   29.0000    0    63.550    0.000000    0.000000    0.779920
   1 F     9.0000    0    18.998    0.000000    0.000000   -2.513077

--------------------------------
INTERNAL COORDINATES (ANGSTROEM)
--------------------------------
 Cu     0   0   0     0.000000000000     0.00000000     0.00000000
 F      1   0   0     1.742579000000     0.00000000     0.00000000

---------------------------
INTERNAL COORDINATES (A.U.)
---------------------------
 Cu     0   0   0     0.000000000000     0.00000000     0.00000000
 F      1   0   0     3.292997076722     0.00000000     0.00000000

---------------------
BASIS SET INFORMATION
---------------------
There are 2 groups of distinct atoms

 Group   1 Type Cu  : 17s13p7d2f1g contracted to 6s6p4d2f1g pattern {842111/631111/4111/11/1}
 Group   2 Type F   : 12s7p3d1f contracted to 6s4p3d1f pattern {621111/4111/111/1}

Atom   0Cu   basis set group =>   1
Atom   1F    basis set group =>   2
----------------------------------
AUXILIARY/JK BASIS SET INFORMATION
----------------------------------
There are 2 groups of distinct atoms

 Group   1 Type Cu  : 19s14p12d10f7g3h1i contracted to 16s13p11d9f5g3h1i pattern {4111111111111111/2111111111111/21111111111/211111111/31111/111/1}
 Group   2 Type F   : 14s10p6d2f1g contracted to 10s8p4d2f1g pattern {5111111111/31111111/3111/11/1}

Atom   0Cu   basis set group =>   1
Atom   1F    basis set group =>   2


           ************************************************************
           *        Program running with 24 parallel MPI-processes    *
           *              working on a common directory               *
           ************************************************************
------------------------------------------------------------------------------
                           ORCA GTO INTEGRAL CALCULATION
------------------------------------------------------------------------------

                         BASIS SET STATISTICS AND STARTUP INFO

 # of primitive gaussian shells          ...   63
 # of primitive gaussian functions       ...  169
 # of contracted shells                  ...   33
 # of contracted basis functions         ...  107
 Highest angular momentum                ...    4
 Maximum contraction depth               ...    8
 Integral package used                   ... LIBINT
 Integral threshhold            Thresh   ...  2.500e-11
 Primitive cut-off              TCut     ...  2.500e-12


------------------------------ INTEGRAL EVALUATION ----------------------------


 * One electron integrals 
 Pre-screening matrix                    ... done
 Shell pair data                         ... done (   0.000 sec)



           ************************************************************
           *        Program running with 24 parallel MPI-processes    *
           *              working on a common directory               *
           ************************************************************
-------------------------------------------------------------------------------
                                 ORCA SCF
-------------------------------------------------------------------------------

------------
SCF SETTINGS
------------
Hamiltonian:
 Density Functional     Method          .... DFT(GTOs)
 Exchange Functional    Exchange        .... WB97M-V
 Correlation Functional Correlation     .... WB97M-V
 Gradients option       PostSCFGGA      .... off
 Hybrid DFT is turned on
   Fraction HF Exchange ScalHFX         ....  0.150000
   Scaling of DF-GGA-X  ScalDFX         ....  0.000000
   Scaling of DF-GGA-C  ScalDFC         ....  1.000000
   Scaling of DF-LDA-C  ScalLDAC        ....  1.000000
   Perturbative correction              ....  0.000000
   Density functional embedding theory  .... OFF
 Long-range corrected/Screened/Range-Separated Hybrid DFT is turned on
   Amount of maximum screened exact exchange              ....  0.850000
   Range separation parameter mu (erf(mu*r12)/r12)        ....  0.300000
   NL short-range parameter             ....  6.000000
   NL long-range parameter              ....  0.010000


General Settings:
 Integral files         IntName         .... Cu01N0_F
 Hartree-Fock type      HFTyp           .... RHF
 Total Charge           Charge          ....    0
 Multiplicity           Mult            ....    1
 Number of Electrons    NEL             ....   38
 Basis Dimension        Dim             ....  107
 Nuclear Repulsion      ENuc            ....     79.2591046755 Eh

Convergence Acceleration:
 DIIS                   CNVDIIS         .... on
   Start iteration      DIISMaxIt       ....    12
   Startup error        DIISStart       ....  0.200000
   # of expansion vecs  DIISMaxEq       ....     5
   Bias factor          DIISBfac        ....   1.050
   Max. coefficient     DIISMaxC        ....  10.000
 Newton-Raphson         CNVNR           .... off
 SOSCF                  CNVSOSCF        .... off
 Level Shifting         CNVShift        .... on
   Level shift para.    LevelShift      ....    0.2500
   Turn off err/grad.   ShiftErr        ....    0.0010
 Zerner damping         CNVZerner       .... off
 Static damping         CNVDamp         .... on
   Fraction old density DampFac         ....    0.7000
   Max. Damping (<1)    DampMax         ....    0.9800
   Min. Damping (>=0)   DampMin         ....    0.0000
   Turn off err/grad.   DampErr         ....    0.1000
 Fernandez-Rico         CNVRico         .... off

SCF Procedure:
 Maximum # iterations   MaxIter         ....   125
 SCF integral mode      SCFMode         .... Direct
   Integral package                     .... LIBINT
 Reset frequency        DirectResetFreq ....    20
 Integral Threshold     Thresh          ....  2.500e-11 Eh
 Primitive CutOff       TCut            ....  2.500e-12 Eh

Convergence Tolerance:
 Convergence Check Mode ConvCheckMode   .... Total+1el-Energy
 Convergence forced     ConvForced      .... 0
 Energy Change          TolE            ....  1.000e-08 Eh
 1-El. energy change                    ....  1.000e-05 Eh
 DIIS Error             TolErr          ....  5.000e-07


Diagonalization of the overlap matrix:
Smallest eigenvalue                        ... 2.204e-03
Time for diagonalization                   ...    0.003 sec
Threshold for overlap eigenvalues          ... 1.000e-08
Number of eigenvalues below threshold      ... 0
Time for construction of square roots      ...    0.001 sec
Total time needed                          ...    0.004 sec

-------------------
DFT GRID GENERATION
-------------------

General Integration Accuracy     IntAcc      ...  4.670
Radial Grid Type                 RadialGrid  ... Gauss-Chebyshev
Angular Grid (max. acc.)         AngularGrid ... Lebedev-302
Angular grid pruning method      GridPruning ... 3 (G Style)
Weight generation scheme         WeightScheme... Becke
Basis function cutoff            BFCut       ...    1.0000e-11
Integration weight cutoff        WCut        ...    1.0000e-14
Grids for H and He will be reduced by one unit

# of grid points (after initial pruning)     ...  15828 (   0.0 sec)
# of grid points (after weights+screening)   ...  15779 (   0.0 sec)
nearest neighbour list constructed           ...    0.0 sec
Grid point re-assignment to atoms done       ...    0.0 sec
Grid point division into batches done        ...    0.1 sec
Reduced shell lists constructed in    0.1 sec

Total number of grid points                  ...    15779
Total number of batches                      ...      247
Average number of points per batch           ...       63
Average number of grid points per atom       ...     7890
Average number of shells per batch           ...     7.17 (21.72%)
Average number of basis functions per batch  ...    18.33 (17.13%)
Average number of large shells per batch     ...     4.92 (68.60%)
Average number of large basis fcns per batch ...    14.42 (78.64%)
Maximum spatial batch extension              ...  22.45, 22.17, 15.93 au
Average spatial batch extension              ...   0.81,  0.80,  0.61 au

Time for grid setup =    0.150 sec

------------------------------
INITIAL GUESS: MODEL POTENTIAL
------------------------------
Loading Hartree-Fock densities                     ... done
Calculating cut-offs                               ... done
Setting up the integral package                    ... done
Initializing the effective Hamiltonian             ... done
Starting the Coulomb interaction                   ... done (   0.0 sec)
Reading the grid                                   ... done
Mapping shells                                     ... done
Starting the XC term evaluation                    ... done (   0.0 sec)
  promolecular density results
     # of electrons  =     38.000016983
     EX              =    -75.423525118
     EC              =     -1.650802410
     EX+EC           =    -77.074327528
Transforming the Hamiltonian                       ... done (   0.0 sec)
Diagonalizing the Hamiltonian                      ... done (   0.0 sec)
Back transforming the eigenvectors                 ... done (   0.0 sec)
Now organizing SCF variables                       ... done
                      ------------------
                      INITIAL GUESS DONE (   0.2 sec)
                      ------------------
--------------
SCF ITERATIONS
--------------
ITER       Energy         Delta-E        Max-DP      RMS-DP      [F,P]     Damp
               ***  Starting incremental Fock matrix formation  ***
  0  -1740.3551858214   0.000000000000 0.03906330  0.00152938  0.2989394 0.7000
  1  -1740.4028736629  -0.047687841515 0.02243978  0.00084361  0.1292541 0.7000
                               ***Turning on DIIS***
  2  -1740.4202071711  -0.017333508200 0.03012699  0.00121855  0.0439750 0.0000
  3  -1740.4542133091  -0.034006138054 0.01567291  0.00050670  0.0777347 0.0000
  4  -1740.4585412620  -0.004327952813 0.00686819  0.00018062  0.0094720 0.0000
  5  -1740.4586706608  -0.000129398805 0.00395831  0.00009999  0.0120914 0.0000
  6  -1740.4588319181  -0.000161257371 0.00560504  0.00009985  0.0026379 0.0000
  7  -1740.4588955256  -0.000063607502 0.00446104  0.00007769  0.0020156 0.0000
  8  -1740.4589264664  -0.000030940793 0.00337475  0.00005951  0.0015068 0.0000
  9  -1740.4589424087  -0.000015942296 0.00224003  0.00004207  0.0010528 0.0000
 10  -1740.4589502256  -0.000007816917 0.00284745  0.00005710  0.0007603 0.0000
 11  -1740.4589563065  -0.000006080845 0.00056241  0.00001269  0.0004096 0.0000
 12  -1740.4589569087  -0.000000602241 0.00064617  0.00001489  0.0003029 0.0000
 13  -1740.4589573439  -0.000000435171 0.00015857  0.00000390  0.0000693 0.0000
 14  -1740.4589573777  -0.000000033796 0.00004427  0.00000099  0.0000313 0.0000
 15  -1740.4589573811  -0.000000003371 0.00001388  0.00000032  0.0000070 0.0000
                 **** Energy Check signals convergence ****

               *****************************************************
               *                     SUCCESS                       *
               *           SCF CONVERGED AFTER  16 CYCLES          *
               *****************************************************


Setting up the DFT-NL grid :

General Integration Accuracy     IntAcc      ...  4.340
Radial Grid Type                 RadialGrid  ... Gauss-Chebyshev
Angular Grid (max. acc.)         AngularGrid ... Lebedev-110
Angular grid pruning method      GridPruning ... 3 (G Style)
Weight generation scheme         WeightScheme... Becke
Basis function cutoff            BFCut       ...    1.0000e-11
Integration weight cutoff        WCut        ...    1.0000e-14
Grids for H and He will be reduced by one unit

# of grid points (after initial pruning)     ...   4652 (   0.0 sec)
# of grid points (after weights+screening)   ...   4627 (   0.0 sec)
nearest neighbour list constructed           ...    0.0 sec
Grid point re-assignment to atoms done       ...    0.0 sec
Grid point division into batches done        ...    0.0 sec
Reduced shell lists constructed in    0.0 sec

Total number of grid points                  ...     4627
Total number of batches                      ...       73
Average number of points per batch           ...       63
Average number of grid points per atom       ...     2314
Average number of shells per batch           ...     9.60 (29.09%)
Average number of basis functions per batch  ...    27.20 (25.42%)
Average number of large shells per batch     ...     9.60 (100.00%)
Average number of large basis fcns per batch ...    27.20 (100.00%)
Maximum spatial batch extension              ...  17.39, 26.34, 14.81 au
Average spatial batch extension              ...   0.92,  1.21,  0.81 au

Final grid set up in    0.0 sec

-------------------------------------------------------------------------------
                         DFT-NL dispersion correction                          
-------------------------------------------------------------------------------

SC Energy -1740.458957381 
NL    Energy 0.161290923 
SC+NL Energy -1740.297666458 
NL done in    0.0 sec
-------------------------------------------------------------------------------

----------------
TOTAL SCF ENERGY
----------------

Total Energy       :        -1740.29766646 Eh          -47355.90703 eV

Components:
Nuclear Repulsion  :           79.25910468 Eh            2156.74989 eV
Electronic Energy  :        -1819.55677113 Eh          -49512.65692 eV
One Electron Energy:        -2585.51058158 Eh          -70355.31972 eV
Two Electron Energy:          765.95381045 Eh           20842.66280 eV

Virial components:
Potential Energy   :        -3478.23648355 Eh          -94647.62651 eV
Kinetic Energy     :         1737.93881709 Eh           47291.71948 eV
Virial Ratio       :            2.00135727


DFT components:
N(Alpha)           :       18.999992274205 electrons
N(Beta)            :       18.999992274205 electrons
N(Total)           :       37.999984548410 electrons
E(X)               :      -59.170527802550 Eh       
E(C)               :       -1.949510921353 Eh       
NL Energy, E(C,NL) :        0.161290923193 Eh       
E(XC)              :      -60.958747800710 Eh       
DFET-embed. en.    :        0.000000000000 Eh       

---------------
SCF CONVERGENCE
---------------

  Last Energy change         ...   -3.2605e-10  Tolerance :   1.0000e-08
  Last MAX-Density change    ...    3.1704e-06  Tolerance :   1.0000e-07
  Last RMS-Density change    ...    7.5087e-08  Tolerance :   5.0000e-09
  Last DIIS Error            ...    1.6171e-06  Tolerance :   5.0000e-07

             **** THE GBW FILE WAS UPDATED (Cu01N0_F.gbw) ****
             **** DENSITY FILE WAS UPDATED (Cu01N0_F.scfp) ****
             **** ENERGY FILE WAS UPDATED (Cu01N0_F.en.tmp) ****
             **** THE GBW FILE WAS UPDATED (Cu01N0_F.gbw) ****
             **** DENSITY FILE WAS UPDATED (Cu01N0_F.scfp) ****
----------------
ORBITAL ENERGIES
----------------

  NO   OCC          E(Eh)            E(eV) 
   0   2.0000    -323.578437     -8805.0169 
   1   2.0000     -39.090232     -1063.6993 
   2   2.0000     -34.191749      -930.4048 
   3   2.0000     -34.191749      -930.4048 
   4   2.0000     -34.189857      -930.3533 
   5   2.0000     -24.796240      -674.7400 
   6   2.0000      -4.483485      -122.0018 
   7   2.0000      -2.950393       -80.2843 
   8   2.0000      -2.946033       -80.1656 
   9   2.0000      -2.946033       -80.1656 
  10   2.0000      -1.187194       -32.3052 
  11   2.0000      -0.497121       -13.5273 
  12   2.0000      -0.465400       -12.6642 
  13   2.0000      -0.465400       -12.6642 
  14   2.0000      -0.415041       -11.2938 
  15   2.0000      -0.415041       -11.2938 
  16   2.0000      -0.385666       -10.4945 
  17   2.0000      -0.385666       -10.4945 
  18   2.0000      -0.372011       -10.1229 
  19   0.0000      -0.053591        -1.4583 
  20   0.0000       0.027408         0.7458 
  21   0.0000       0.027408         0.7458 
  22   0.0000       0.057235         1.5575 
  23   0.0000       0.100419         2.7326 
  24   0.0000       0.169742         4.6189 
  25   0.0000       0.174882         4.7588 
  26   0.0000       0.174882         4.7588 
  27   0.0000       0.185167         5.0387 
  28   0.0000       0.185167         5.0387 
  29   0.0000       0.218781         5.9533 
  30   0.0000       0.218781         5.9533 
  31   0.0000       0.236842         6.4448 
  32   0.0000       0.288929         7.8622 
  33   0.0000       0.288929         7.8622 
  34   0.0000       0.324733         8.8364 
  35   0.0000       0.429358        11.6834 
  36   0.0000       0.632890        17.2218 
  37   0.0000       0.632896        17.2220 
  38   0.0000       0.695780        18.9331 
  39   0.0000       0.695780        18.9331 
  40   0.0000       0.703257        19.1366 
  41   0.0000       0.778491        21.1838 
  42   0.0000       0.787406        21.4264 
  43   0.0000       0.787406        21.4264 
  44   0.0000       0.889378        24.2012 
  45   0.0000       0.889378        24.2012 
  46   0.0000       0.955190        25.9920 
  47   0.0000       0.955190        25.9920 
  48   0.0000       1.122645        30.5487 
  49   0.0000       1.122645        30.5487 
  50   0.0000       1.127480        30.6803 
  51   0.0000       1.179168        32.0868 
  52   0.0000       1.388067        37.7712 
  53   0.0000       2.400992        65.3343 
  54   0.0000       2.436411        66.2981 
  55   0.0000       2.436453        66.2992 
  56   0.0000       2.461136        66.9709 
  57   0.0000       2.461136        66.9709 
  58   0.0000       3.098859        84.3242 
  59   0.0000       3.098859        84.3242 
  60   0.0000       3.179419        86.5164 
  61   0.0000       3.290850        89.5486 
  62   0.0000       3.506701        95.4222 
  63   0.0000       3.508658        95.4754 
  64   0.0000       3.508658        95.4754 
  65   0.0000       3.521069        95.8132 
  66   0.0000       3.521069        95.8132 
  67   0.0000       3.525668        95.9383 
  68   0.0000       3.525669        95.9383 
  69   0.0000       3.637490        98.9811 
  70   0.0000       3.637490        98.9811 
  71   0.0000       3.769354       102.5693 
  72   0.0000       3.769358       102.5695 
  73   0.0000       3.848073       104.7114 
  74   0.0000       3.848073       104.7114 
  75   0.0000       3.961359       107.7941 
  76   0.0000       4.104888       111.6997 
  77   0.0000       4.483385       121.9991 
  78   0.0000       7.087253       192.8540 
  79   0.0000       7.087290       192.8550 
  80   0.0000       7.100015       193.2012 
  81   0.0000       7.100015       193.2012 
  82   0.0000       7.129206       193.9956 
  83   0.0000       7.129206       193.9956 
  84   0.0000       7.220038       196.4672 
  85   0.0000       8.675981       236.0854 
  86   0.0000       8.676572       236.1015 
  87   0.0000       8.729561       237.5434 
  88   0.0000       8.729561       237.5434 
  89   0.0000       8.957367       243.7423 
  90   0.0000      13.116509       356.9184 
  91   0.0000      13.116512       356.9184 
  92   0.0000      13.117649       356.9494 
  93   0.0000      13.117649       356.9494 
  94   0.0000      13.119385       356.9966 
  95   0.0000      13.119385       356.9966 
  96   0.0000      13.122222       357.0738 
  97   0.0000      13.122245       357.0744 
  98   0.0000      13.127829       357.2264 
  99   0.0000      13.299044       361.8854 
 100   0.0000      13.299044       361.8854 
 101   0.0000      13.301761       361.9593 
 102   0.0000      13.301779       361.9598 
 103   0.0000      13.339446       362.9848 
 104   0.0000      13.339446       362.9848 
 105   0.0000      13.525066       368.0358 
 106   0.0000      57.513001      1565.0083 

                    ********************************
                    * MULLIKEN POPULATION ANALYSIS *
                    ********************************

-----------------------
MULLIKEN ATOMIC CHARGES
-----------------------
   0 Cu:    0.702992
   1 F :   -0.702992
Sum of atomic charges:   -0.0000000

--------------------------------
MULLIKEN REDUCED ORBITAL CHARGES
--------------------------------
  0 Cus       :     6.321274  s :     6.321274
      pz      :     4.041316  p :    12.102993
      px      :     4.030838
      py      :     4.030838
      dz2     :     1.870701  d :     9.870866
      dxz     :     1.999525
      dyz     :     1.999525
      dx2y2   :     2.000557
      dxy     :     2.000557
      f0      :     0.000891  f :     0.001869
      f+1     :     0.000448
      f-1     :     0.000448
      f+2     :     0.000041
      f-2     :     0.000041
      f+3     :     0.000000
      f-3     :     0.000000
      g0      :     0.000003  g :     0.000006
      g+1     :     0.000001
      g-1     :     0.000001
      g+2     :     0.000000
      g-2     :     0.000000
      g+3     :     0.000000
      g-3     :     0.000000
      g+4     :     0.000000
      g-4     :     0.000000
  1 F s       :     3.983232  s :     3.983232
      pz      :     1.774523  p :     5.714088
      px      :     1.969782
      py      :     1.969782
      dz2     :     0.007939  d :     0.005427
      dxz     :    -0.000653
      dyz     :    -0.000653
      dx2y2   :    -0.000603
      dxy     :    -0.000603
      f0      :     0.000122  f :     0.000246
      f+1     :     0.000058
      f-1     :     0.000058
      f+2     :     0.000004
      f-2     :     0.000004
      f+3     :     0.000000
      f-3     :     0.000000


                     *******************************
                     * LOEWDIN POPULATION ANALYSIS *
                     *******************************

----------------------
LOEWDIN ATOMIC CHARGES
----------------------
   0 Cu:    0.556580
   1 F :   -0.556580

-------------------------------
LOEWDIN REDUCED ORBITAL CHARGES
-------------------------------
  0 Cus       :     6.206129  s :     6.206129
      pz      :     4.120832  p :    12.246661
      px      :     4.062915
      py      :     4.062915
      dz2     :     1.946806  d :     9.986825
      dxz     :     2.023015
      dyz     :     2.023015
      dx2y2   :     1.996994
      dxy     :     1.996994
      f0      :     0.002065  f :     0.003792
      f+1     :     0.000816
      f-1     :     0.000816
      f+2     :     0.000047
      f-2     :     0.000047
      f+3     :     0.000000
      f-3     :     0.000000
      g0      :     0.000008  g :     0.000014
      g+1     :     0.000003
      g-1     :     0.000003
      g+2     :     0.000000
      g-2     :     0.000000
      g+3     :     0.000000
      g-3     :     0.000000
      g+4     :     0.000000
      g-4     :     0.000000
  1 F s       :     3.829423  s :     3.829423
      pz      :     1.842726  p :     5.643950
      px      :     1.900612
      py      :     1.900612
      dz2     :     0.051767  d :     0.082639
      dxz     :     0.012492
      dyz     :     0.012492
      dx2y2   :     0.002944
      dxy     :     0.002944
      f0      :     0.000244  f :     0.000568
      f+1     :     0.000148
      f-1     :     0.000148
      f+2     :     0.000014
      f-2     :     0.000014
      f+3     :     0.000000
      f-3     :     0.000000


                      *****************************
                      * MAYER POPULATION ANALYSIS *
                      *****************************

  NA   - Mulliken gross atomic population
  ZA   - Total nuclear charge
  QA   - Mulliken gross atomic charge
  VA   - Mayer's total valence
  BVA  - Mayer's bonded valence
  FA   - Mayer's free valence

  ATOM       NA         ZA         QA         VA         BVA        FA
  0 Cu    28.2970    29.0000     0.7030     0.6370     0.6370    -0.0000
  1 F      9.7030     9.0000    -0.7030     0.6370     0.6370     0.0000

  Mayer bond orders larger than 0.100000
B(  0-Cu,  1-F ) :   0.6370 

-------
TIMINGS
-------

Total SCF time: 0 days 0 hours 0 min 4 sec 

Total time                  ....       4.695 sec
Sum of individual times     ....       4.500 sec  ( 95.8%)

Fock matrix formation       ....       4.204 sec  ( 89.5%)
  XC integration            ....       0.246 sec  (  5.9% of F)
    Basis function eval.    ....       0.023 sec  (  9.2% of XC)
    Density eval.           ....       0.032 sec  ( 13.1% of XC)
    XC-Functional eval.     ....       0.018 sec  (  7.4% of XC)
    XC-Potential eval.      ....       0.062 sec  ( 25.1% of XC)
Diagonalization             ....       0.027 sec  (  0.6%)
Density matrix formation    ....       0.004 sec  (  0.1%)
Population analysis         ....       0.003 sec  (  0.1%)
Initial guess               ....       0.083 sec  (  1.8%)
Orbital Transformation      ....       0.000 sec  (  0.0%)
Orbital Orthonormalization  ....       0.000 sec  (  0.0%)
DIIS solution               ....       0.016 sec  (  0.3%)
Grid generation             ....       0.163 sec  (  3.5%)

-------------------------   --------------------
FINAL SINGLE POINT ENERGY     -1740.297666458202
-------------------------   --------------------


----------------------------------------------------------------------------
                           ORCA NUMERICAL GRADIENT
                              (24-process run)
----------------------------------------------------------------------------

I state                        ... 1
J state                        ... 0
Number of atoms                ... 2
Derivative's order of accuracy ... 2
Central differences            ... used
Number of displacements        ... 12
Numerical increment            ... 5.000e-03 bohr
Translation invariance         ... used

The output will be reduced. Please look at the following files:
SCF program output             ... >Cu01N0_F.lastscf
Integral program output        ... >Cu01N0_F.lastint
Gradient program output        ... >Cu01N0_F.lastgrad


     Note:   There are more processes than displacements to do
     ===>:   Reducing number of processes to   3

             <<<Displacing   2/coordinate 1 (+)>>>
             <<<Displacing   2/coordinate 2 (+)>>>
             <<<Displacing   2/coordinate 3 (+)>>>
             <<<Displacing   2/coordinate 3 (-)>>>
             <<<Displacing   2/coordinate 1 (-)>>>
             <<<Displacing   2/coordinate 2 (-)>>>

------------------------------
CARTESIAN GRADIENT (NUMERICAL)
-------------------------------
   1   Cu  :   -0.000000638    0.000000666   -0.011848763
   2   F   :    0.000000638   -0.000000666    0.011848763

Norm of the cartesian gradient     ...    0.016756681
RMS gradient                       ...    0.006840886
MAX gradient                       ...    0.011848763

-------
TIMINGS
-------

Total numerical gradient time      ...       47.226 sec

------------------------------------------------------------------------------
                         ORCA GEOMETRY RELAXATION STEP
------------------------------------------------------------------------------

Reading the OPT-File                    .... done
Getting information on internals        .... done
Copying old internal coords+grads       .... done
Making the new internal coordinates     .... (new redundants).... done
Validating the new internal coordinates .... (new redundants).... done
Calculating the B-matrix                .... done
Calculating the G,G- and P matrices     .... done
Transforming gradient to internals      .... done
Projecting the internal gradient        .... done
Number of atoms                         ....   2
Number of internal coordinates          ....   1
Current Energy                          .... -1740.297666458 Eh
Current gradient norm                   ....     0.016756681 Eh/bohr
Maximum allowed component of the step   ....  0.300
Current trust radius                    ....  0.300
Evaluating the initial hessian          ....  (Almloef) done
Projecting the Hessian                  .... done
Forming the augmented Hessian           .... done
Diagonalizing the augmented Hessian     .... done
Last element of RFO vector              ....  0.999966187
Lowest eigenvalues of augmented Hessian:
 -0.000097441
Length of the computed step             ....  0.008223740
The final length of the internal step   ....  0.008223740
Converting the step to cartesian space:
 Initial RMS(Int)=    0.0082237401
Transforming coordinates:
 Iter   0:  RMS(Cart)=    0.0023739893 RMS(Int)=    0.0082237401
 Iter   1:  RMS(Cart)=    0.0000000000 RMS(Int)=    0.0000000000
done
Storing new coordinates                 .... done

                                .--------------------.
          ----------------------|Geometry convergence|-------------------------
          Item                value                   Tolerance       Converged
          ---------------------------------------------------------------------
          RMS gradient        0.0118487625            0.0001000000      NO
          MAX gradient        0.0118487625            0.0003000000      NO
          RMS step            0.0082237401            0.0020000000      NO
          MAX step            0.0082237401            0.0040000000      NO
          ........................................................
          Max(Bonds)      0.0044      Max(Angles)    0.00
          Max(Dihed)        0.00      Max(Improp)    0.00
          ---------------------------------------------------------------------

The optimization has not yet converged - more geometry cycles are needed


    ---------------------------------------------------------------------------
                         Redundant Internal Coordinates
                            (Angstroem and degrees)

        Definition                    Value    dE/dq     Step     New-Value
    ----------------------------------------------------------------------------
     1. B(F   1,Cu  0)                1.7426 -0.011849  0.0044    1.7469   
    ----------------------------------------------------------------------------

         *************************************************************
         *                GEOMETRY OPTIMIZATION CYCLE   2            *
         *************************************************************
---------------------------------
CARTESIAN COORDINATES (ANGSTROEM)
---------------------------------
  Cu     0.000000    0.000000    0.414892
  F      0.000000    0.000000   -1.332039

----------------------------
CARTESIAN COORDINATES (A.U.)
----------------------------
  NO LB      ZA    FRAG     MASS         X           Y           Z
   0 Cu   29.0000    0    63.550    0.000000    0.000000    0.784032
   1 F     9.0000    0    18.998    0.000000    0.000000   -2.517189

--------------------------------
INTERNAL COORDINATES (ANGSTROEM)
--------------------------------
 Cu     0   0   0     0.000000000000     0.00000000     0.00000000
 F      1   0   0     1.746930815822     0.00000000     0.00000000

---------------------------
INTERNAL COORDINATES (A.U.)
---------------------------
 Cu     0   0   0     0.000000000000     0.00000000     0.00000000
 F      1   0   0     3.301220816812     0.00000000     0.00000000



           ************************************************************
           *        Program running with 24 parallel MPI-processes    *
           *              working on a common directory               *
           ************************************************************


           ************************************************************
           *        Program running with 24 parallel MPI-processes    *
           *              working on a common directory               *
           ************************************************************

Diagonalization of the overlap matrix:
Smallest eigenvalue                        ... 2.231e-03
Time for diagonalization                   ...    0.004 sec
Threshold for overlap eigenvalues          ... 1.000e-08
Number of eigenvalues below threshold      ... 0
Time for construction of square roots      ...    0.002 sec
Total time needed                          ...    0.006 sec

-------------------
DFT GRID GENERATION
-------------------

General Integration Accuracy     IntAcc      ...  4.670
Radial Grid Type                 RadialGrid  ... Gauss-Chebyshev
Angular Grid (max. acc.)         AngularGrid ... Lebedev-302
Angular grid pruning method      GridPruning ... 3 (G Style)
Weight generation scheme         WeightScheme... Becke
Basis function cutoff            BFCut       ...    1.0000e-11
Integration weight cutoff        WCut        ...    1.0000e-14
Grids for H and He will be reduced by one unit

# of grid points (after initial pruning)     ...  15828 (   0.0 sec)
# of grid points (after weights+screening)   ...  15780 (   0.0 sec)
nearest neighbour list constructed           ...    0.0 sec
Grid point re-assignment to atoms done       ...    0.0 sec
Grid point division into batches done        ...    0.1 sec
Reduced shell lists constructed in    0.1 sec

Total number of grid points                  ...    15780
Total number of batches                      ...      248
Average number of points per batch           ...       63
Average number of grid points per atom       ...     7890
Average number of shells per batch           ...     7.17 (21.72%)
Average number of basis functions per batch  ...    18.33 (17.13%)
Average number of large shells per batch     ...     4.92 (68.60%)
Average number of large basis fcns per batch ...    14.42 (78.64%)
Maximum spatial batch extension              ...  22.45, 22.17, 15.93 au
Average spatial batch extension              ...   0.81,  0.79,  0.61 au

Time for grid setup =    0.143 sec

--------------
SCF ITERATIONS
--------------
ITER       Energy         Delta-E        Max-DP      RMS-DP      [F,P]     Damp
               ***  Starting incremental Fock matrix formation  ***
  0  -1740.4590584268   0.000000000000 0.00037149  0.00000882  0.0006326 0.7000
  1  -1740.4590590636  -0.000000636839 0.00029999  0.00000735  0.0004513 0.7000
                               ***Turning on DIIS***
  2  -1740.4590595408  -0.000000477160 0.00063998  0.00001779  0.0003229 0.0000
  3  -1740.4590609142  -0.000001373390 0.00020266  0.00000480  0.0001576 0.0000
  4  -1740.4590610631  -0.000000148967 0.00018215  0.00000320  0.0001070 0.0000
  5  -1740.4590611128  -0.000000049610 0.00012598  0.00000249  0.0000680 0.0000
  6  -1740.4590611413  -0.000000028577 0.00013670  0.00000249  0.0000603 0.0000
  7  -1740.4590611580  -0.000000016714 0.00008667  0.00000160  0.0000473 0.0000
  8  -1740.4590611662  -0.000000008206 0.00007211  0.00000137  0.0000134 0.0000
  9  -1740.4590611688  -0.000000002531 0.00001306  0.00000030  0.0000041 0.0000
                            ***DIIS convergence achieved***

               *****************************************************
               *                     SUCCESS                       *
               *           SCF CONVERGED AFTER  10 CYCLES          *
               *****************************************************


Setting up the DFT-NL grid :

General Integration Accuracy     IntAcc      ...  4.340
Radial Grid Type                 RadialGrid  ... Gauss-Chebyshev
Angular Grid (max. acc.)         AngularGrid ... Lebedev-110
Angular grid pruning method      GridPruning ... 3 (G Style)
Weight generation scheme         WeightScheme... Becke
Basis function cutoff            BFCut       ...    1.0000e-11
Integration weight cutoff        WCut        ...    1.0000e-14
Grids for H and He will be reduced by one unit

# of grid points (after initial pruning)     ...   4652 (   0.0 sec)
# of grid points (after weights+screening)   ...   4627 (   0.0 sec)
nearest neighbour list constructed           ...    0.0 sec
Grid point re-assignment to atoms done       ...    0.0 sec
Grid point division into batches done        ...    0.0 sec
Reduced shell lists constructed in    0.0 sec

Total number of grid points                  ...     4627
Total number of batches                      ...       73
Average number of points per batch           ...       63
Average number of grid points per atom       ...     2314
Average number of shells per batch           ...     9.60 (29.09%)
Average number of basis functions per batch  ...    27.20 (25.42%)
Average number of large shells per batch     ...     9.60 (100.00%)
Average number of large basis fcns per batch ...    27.20 (100.00%)
Maximum spatial batch extension              ...  17.39, 26.34, 14.81 au
Average spatial batch extension              ...   0.92,  1.21,  0.81 au

Final grid set up in    0.0 sec

-------------------------------------------------------------------------------
                         DFT-NL dispersion correction                          
-------------------------------------------------------------------------------

SC Energy -1740.459061169 
NL    Energy 0.161305005 
SC+NL Energy -1740.297756164 
NL done in    0.0 sec
-------------------------------------------------------------------------------
Total Energy       :        -1740.29775616 Eh          -47355.90947 eV
  Last Energy change         ...    2.2737e-11  Tolerance :   1.0000e-08
  Last MAX-Density change    ...    3.5996e-06  Tolerance :   1.0000e-07
             **** THE GBW FILE WAS UPDATED (Cu01N0_F.gbw) ****
             **** DENSITY FILE WAS UPDATED (Cu01N0_F.scfp) ****
             **** ENERGY FILE WAS UPDATED (Cu01N0_F.en.tmp) ****
             **** THE GBW FILE WAS UPDATED (Cu01N0_F.gbw) ****
             **** DENSITY FILE WAS UPDATED (Cu01N0_F.scfp) ****
Total SCF time: 0 days 0 hours 0 min 3 sec 

-------------------------   --------------------
FINAL SINGLE POINT ENERGY     -1740.297756163725
-------------------------   --------------------


----------------------------------------------------------------------------
                           ORCA NUMERICAL GRADIENT
                              (24-process run)
----------------------------------------------------------------------------

I state                        ... 1
J state                        ... 0
Number of atoms                ... 2
Derivative's order of accuracy ... 2
Central differences            ... used
Number of displacements        ... 12
Numerical increment            ... 5.000e-03 bohr
Translation invariance         ... used

The output will be reduced. Please look at the following files:
SCF program output             ... >Cu01N0_F.lastscf
Integral program output        ... >Cu01N0_F.lastint
Gradient program output        ... >Cu01N0_F.lastgrad


     Note:   There are more processes than displacements to do
     ===>:   Reducing number of processes to   3

             <<<Displacing   2/coordinate 1 (+)>>>
             <<<Displacing   2/coordinate 3 (+)>>>
             <<<Displacing   2/coordinate 2 (+)>>>
             <<<Displacing   2/coordinate 1 (-)>>>
             <<<Displacing   2/coordinate 2 (-)>>>
             <<<Displacing   2/coordinate 3 (-)>>>

------------------------------
CARTESIAN GRADIENT (NUMERICAL)
-------------------------------
   1   Cu  :   -0.000000754   -0.000000125   -0.009979399
   2   F   :    0.000000754    0.000000125    0.009979399

Norm of the cartesian gradient     ...    0.014113001
RMS gradient                       ...    0.005761609
MAX gradient                       ...    0.009979399

-------
TIMINGS
-------

Total numerical gradient time      ...       42.496 sec

------------------------------------------------------------------------------
                         ORCA GEOMETRY RELAXATION STEP
------------------------------------------------------------------------------

Reading the OPT-File                    .... done
Getting information on internals        .... done
Copying old internal coords+grads       .... done
Making the new internal coordinates     .... (new redundants).... done
Validating the new internal coordinates .... (new redundants).... done
Calculating the B-matrix                .... done
Calculating the G,G- and P matrices     .... done
Transforming gradient to internals      .... done
Projecting the internal gradient        .... done
Number of atoms                         ....   2
Number of internal coordinates          ....   1
Current Energy                          .... -1740.297756164 Eh
Current gradient norm                   ....     0.014113001 Eh/bohr
Maximum allowed component of the step   ....  0.300
Current trust radius                    ....  0.300
Updating the Hessian (BFGS)             .... done
Forming the augmented Hessian           .... done
Diagonalizing the augmented Hessian     .... done
Last element of RFO vector              ....  0.999041404
Lowest eigenvalues of augmented Hessian:
 -0.000437270
Length of the computed step             ....  0.043817270
The final length of the internal step   ....  0.043817270
Converting the step to cartesian space:
 Initial RMS(Int)=    0.0438172701
Transforming coordinates:
 Iter   0:  RMS(Cart)=    0.0126489563 RMS(Int)=    0.0438172701
 Iter   1:  RMS(Cart)=    0.0000000000 RMS(Int)=    0.0000000000
done
Storing new coordinates                 .... done

                                .--------------------.
          ----------------------|Geometry convergence|-------------------------
          Item                value                   Tolerance       Converged
          ---------------------------------------------------------------------
          Energy change      -0.0000897055            0.0000050000      NO
          RMS gradient        0.0099793988            0.0001000000      NO
          MAX gradient        0.0099793988            0.0003000000      NO
          RMS step            0.0438172701            0.0020000000      NO
          MAX step            0.0438172701            0.0040000000      NO
          ........................................................
          Max(Bonds)      0.0232      Max(Angles)    0.00
          Max(Dihed)        0.00      Max(Improp)    0.00
          ---------------------------------------------------------------------

The optimization has not yet converged - more geometry cycles are needed


    ---------------------------------------------------------------------------
                         Redundant Internal Coordinates
                            (Angstroem and degrees)

        Definition                    Value    dE/dq     Step     New-Value
    ----------------------------------------------------------------------------
     1. B(F   1,Cu  0)                1.7469 -0.009979  0.0232    1.7701   
    ----------------------------------------------------------------------------

         *************************************************************
         *                GEOMETRY OPTIMIZATION CYCLE   3            *
         *************************************************************


           ************************************************************
           *        Program running with 24 parallel MPI-processes    *
           *              working on a common directory               *
           ************************************************************


           ************************************************************
           *        Program running with 24 parallel MPI-processes    *
           *              working on a common directory               *
           ************************************************************

Diagonalization of the overlap matrix:
Smallest eigenvalue                        ... 2.377e-03
Time for diagonalization                   ...    0.003 sec
Threshold for overlap eigenvalues          ... 1.000e-08
Number of eigenvalues below threshold      ... 0
Time for construction of square roots      ...    0.002 sec
Total time needed                          ...    0.005 sec

-------------------
DFT GRID GENERATION
-------------------

General Integration Accuracy     IntAcc      ...  4.670
Radial Grid Type                 RadialGrid  ... Gauss-Chebyshev
Angular Grid (max. acc.)         AngularGrid ... Lebedev-302
Angular grid pruning method      GridPruning ... 3 (G Style)
Weight generation scheme         WeightScheme... Becke
Basis function cutoff            BFCut       ...    1.0000e-11
Integration weight cutoff        WCut        ...    1.0000e-14
Grids for H and He will be reduced by one unit

# of grid points (after initial pruning)     ...  15828 (   0.0 sec)
# of grid points (after weights+screening)   ...  15780 (   0.0 sec)
nearest neighbour list constructed           ...    0.0 sec
Grid point re-assignment to atoms done       ...    0.0 sec
Grid point division into batches done        ...    0.1 sec
Reduced shell lists constructed in    0.1 sec

Total number of grid points                  ...    15780
Total number of batches                      ...      248
Average number of points per batch           ...       63
Average number of grid points per atom       ...     7890
Average number of shells per batch           ...     7.17 (21.72%)
Average number of basis functions per batch  ...    18.33 (17.13%)
Average number of large shells per batch     ...     4.92 (68.60%)
Average number of large basis fcns per batch ...    14.42 (78.64%)
Maximum spatial batch extension              ...  22.45, 22.17, 15.93 au
Average spatial batch extension              ...   0.81,  0.79,  0.61 au

Time for grid setup =    0.156 sec

--------------
SCF ITERATIONS
--------------
ITER       Energy         Delta-E        Max-DP      RMS-DP      [F,P]     Damp
               ***  Starting incremental Fock matrix formation  ***
  0  -1740.4592922855   0.000000000000 0.00182632  0.00004436  0.0032548 0.7000
  1  -1740.4593095320  -0.000017246543 0.00146004  0.00003679  0.0023237 0.7000
                               ***Turning on DIIS***
  2  -1740.4593224377  -0.000012905659 0.00324950  0.00008924  0.0016821 0.0000
  3  -1740.4593584655  -0.000036027831 0.00103579  0.00002699  0.0008472 0.0000
  4  -1740.4593628945  -0.000004428961 0.00079355  0.00001451  0.0006645 0.0000
  5  -1740.4593643313  -0.000001436799 0.00084746  0.00001638  0.0004295 0.0000
  6  -1740.4593654495  -0.000001118186 0.00062828  0.00001158  0.0003699 0.0000
  7  -1740.4593659271  -0.000000477637 0.00065580  0.00001178  0.0002732 0.0000
  8  -1740.4593662984  -0.000000371346 0.00046212  0.00000850  0.0000769 0.0000
  9  -1740.4593663940  -0.000000095519 0.00008614  0.00000185  0.0000245 0.0000
 10  -1740.4593663997  -0.000000005725 0.00001967  0.00000048  0.0000060 0.0000
 11  -1740.4593663998  -0.000000000153 0.00000269  0.00000009  0.0000079 0.0000
 12  -1740.4593664000  -0.000000000177 0.00000566  0.00000011  0.0000038 0.0000
 13  -1740.4593664002  -0.000000000156 0.00000234  0.00000006  0.0000036 0.0000
 14  -1740.4593664001   0.000000000040 0.00000248  0.00000004  0.0000013 0.0000
                 **** Energy Check signals convergence ****

               *****************************************************
               *                     SUCCESS                       *
               *           SCF CONVERGED AFTER  15 CYCLES          *
               *****************************************************


Setting up the DFT-NL grid :

General Integration Accuracy     IntAcc      ...  4.340
Radial Grid Type                 RadialGrid  ... Gauss-Chebyshev
Angular Grid (max. acc.)         AngularGrid ... Lebedev-110
Angular grid pruning method      GridPruning ... 3 (G Style)
Weight generation scheme         WeightScheme... Becke
Basis function cutoff            BFCut       ...    1.0000e-11
Integration weight cutoff        WCut        ...    1.0000e-14
Grids for H and He will be reduced by one unit

# of grid points (after initial pruning)     ...   4652 (   0.0 sec)
# of grid points (after weights+screening)   ...   4627 (   0.0 sec)
nearest neighbour list constructed           ...    0.0 sec
Grid point re-assignment to atoms done       ...    0.0 sec
Grid point division into batches done        ...    0.0 sec
Reduced shell lists constructed in    0.0 sec

Total number of grid points                  ...     4627
Total number of batches                      ...       73
Average number of points per batch           ...       63
Average number of grid points per atom       ...     2314
Average number of shells per batch           ...     9.60 (29.09%)
Average number of basis functions per batch  ...    27.20 (25.42%)
Average number of large shells per batch     ...     9.60 (100.00%)
Average number of large basis fcns per batch ...    27.20 (100.00%)
Maximum spatial batch extension              ...  17.39, 26.34, 14.81 au
Average spatial batch extension              ...   0.92,  1.21,  0.81 au

Final grid set up in    0.0 sec

-------------------------------------------------------------------------------
                         DFT-NL dispersion correction                          
-------------------------------------------------------------------------------

SC Energy -1740.459366400 
NL    Energy 0.161379099 
SC+NL Energy -1740.297987301 
NL done in    0.1 sec
-------------------------------------------------------------------------------
Total Energy       :        -1740.29798730 Eh          -47355.91576 eV
  Last Energy change         ...   -4.3201e-12  Tolerance :   1.0000e-08
  Last MAX-Density change    ...    1.4285e-06  Tolerance :   1.0000e-07
             **** THE GBW FILE WAS UPDATED (Cu01N0_F.gbw) ****
             **** DENSITY FILE WAS UPDATED (Cu01N0_F.scfp) ****
             **** ENERGY FILE WAS UPDATED (Cu01N0_F.en.tmp) ****
             **** THE GBW FILE WAS UPDATED (Cu01N0_F.gbw) ****
             **** DENSITY FILE WAS UPDATED (Cu01N0_F.scfp) ****
Total SCF time: 0 days 0 hours 0 min 4 sec 

-------------------------   --------------------
FINAL SINGLE POINT ENERGY     -1740.297987301284
-------------------------   --------------------


----------------------------------------------------------------------------
                           ORCA NUMERICAL GRADIENT
                              (24-process run)
----------------------------------------------------------------------------

I state                        ... 1
J state                        ... 0
Number of atoms                ... 2
Derivative's order of accuracy ... 2
Central differences            ... used
Number of displacements        ... 12
Numerical increment            ... 5.000e-03 bohr
Translation invariance         ... used

The output will be reduced. Please look at the following files:
SCF program output             ... >Cu01N0_F.lastscf
Integral program output        ... >Cu01N0_F.lastint
Gradient program output        ... >Cu01N0_F.lastgrad


     Note:   There are more processes than displacements to do
     ===>:   Reducing number of processes to   3

             <<<Displacing   2/coordinate 1 (+)>>>
             <<<Displacing   2/coordinate 2 (+)>>>
             <<<Displacing   2/coordinate 3 (+)>>>
             <<<Displacing   2/coordinate 1 (-)>>>
             <<<Displacing   2/coordinate 3 (-)>>>
             <<<Displacing   2/coordinate 2 (-)>>>

------------------------------
CARTESIAN GRADIENT (NUMERICAL)
-------------------------------
   1   Cu  :   -0.000000808    0.000000097   -0.000784114
   2   F   :    0.000000808   -0.000000097    0.000784114

Norm of the cartesian gradient     ...    0.001108906
RMS gradient                       ...    0.000452709
MAX gradient                       ...    0.000784114

-------
TIMINGS
-------

Total numerical gradient time      ...       41.198 sec

------------------------------------------------------------------------------
                         ORCA GEOMETRY RELAXATION STEP
------------------------------------------------------------------------------

Reading the OPT-File                    .... done
Getting information on internals        .... done
Copying old internal coords+grads       .... done
Making the new internal coordinates     .... (new redundants).... done
Validating the new internal coordinates .... (new redundants).... done
Calculating the B-matrix                .... done
Calculating the G,G- and P matrices     .... done
Transforming gradient to internals      .... done
Projecting the internal gradient        .... done
Number of atoms                         ....   2
Number of internal coordinates          ....   1
Current Energy                          .... -1740.297987301 Eh
Current gradient norm                   ....     0.001108906 Eh/bohr
Maximum allowed component of the step   ....  0.300
Current trust radius                    ....  0.300
Updating the Hessian (BFGS)             .... done
Forming the augmented Hessian           .... done
Diagonalizing the augmented Hessian     .... done
Last element of RFO vector              ....  0.999993020
Lowest eigenvalues of augmented Hessian:
 -0.000002930
Length of the computed step             ....  0.003736401
The final length of the internal step   ....  0.003736401
Converting the step to cartesian space:
 Initial RMS(Int)=    0.0037364005
Transforming coordinates:
 Iter   0:  RMS(Cart)=    0.0010786059 RMS(Int)=    0.0037364005
 Iter   1:  RMS(Cart)=    0.0000000000 RMS(Int)=    0.0000000000
done
Storing new coordinates                 .... done

                                .--------------------.
          ----------------------|Geometry convergence|-------------------------
          Item                value                   Tolerance       Converged
          ---------------------------------------------------------------------
          Energy change      -0.0002311376            0.0000050000      NO
          RMS gradient        0.0007841142            0.0001000000      NO
          MAX gradient        0.0007841142            0.0003000000      NO
          RMS step            0.0037364005            0.0020000000      NO
          MAX step            0.0037364005            0.0040000000      YES
          ........................................................
          Max(Bonds)      0.0020      Max(Angles)    0.00
          Max(Dihed)        0.00      Max(Improp)    0.00
          ---------------------------------------------------------------------

The optimization has not yet converged - more geometry cycles are needed


    ---------------------------------------------------------------------------
                         Redundant Internal Coordinates
                            (Angstroem and degrees)

        Definition                    Value    dE/dq     Step     New-Value
    ----------------------------------------------------------------------------
     1. B(F   1,Cu  0)                1.7701 -0.000784  0.0020    1.7721   
    ----------------------------------------------------------------------------

         *************************************************************
         *                GEOMETRY OPTIMIZATION CYCLE   4            *
         *************************************************************


           ************************************************************
           *        Program running with 24 parallel MPI-processes    *
           *              working on a common directory               *
           ************************************************************


           ************************************************************
           *        Program running with 24 parallel MPI-processes    *
           *              working on a common directory               *
           ************************************************************

Diagonalization of the overlap matrix:
Smallest eigenvalue                        ... 2.391e-03
Time for diagonalization                   ...    0.002 sec
Threshold for overlap eigenvalues          ... 1.000e-08
Number of eigenvalues below threshold      ... 0
Time for construction of square roots      ...    0.001 sec
Total time needed                          ...    0.004 sec

-------------------
DFT GRID GENERATION
-------------------

General Integration Accuracy     IntAcc      ...  4.670
Radial Grid Type                 RadialGrid  ... Gauss-Chebyshev
Angular Grid (max. acc.)         AngularGrid ... Lebedev-302
Angular grid pruning method      GridPruning ... 3 (G Style)
Weight generation scheme         WeightScheme... Becke
Basis function cutoff            BFCut       ...    1.0000e-11
Integration weight cutoff        WCut        ...    1.0000e-14
Grids for H and He will be reduced by one unit

# of grid points (after initial pruning)     ...  15828 (   0.0 sec)
# of grid points (after weights+screening)   ...  15780 (   0.0 sec)
nearest neighbour list constructed           ...    0.0 sec
Grid point re-assignment to atoms done       ...    0.0 sec
Grid point division into batches done        ...    0.1 sec
Reduced shell lists constructed in    0.1 sec

Total number of grid points                  ...    15780
Total number of batches                      ...      248
Average number of points per batch           ...       63
Average number of grid points per atom       ...     7890
Average number of shells per batch           ...     7.17 (21.72%)
Average number of basis functions per batch  ...    18.33 (17.13%)
Average number of large shells per batch     ...     4.92 (68.60%)
Average number of large basis fcns per batch ...    14.42 (78.64%)
Maximum spatial batch extension              ...  22.45, 22.17, 15.93 au
Average spatial batch extension              ...   0.80,  0.79,  0.61 au

Time for grid setup =    0.146 sec

--------------
SCF ITERATIONS
--------------
ITER       Energy         Delta-E        Max-DP      RMS-DP      [F,P]     Damp
               ***  Starting incremental Fock matrix formation  ***
  0  -1740.4593736869   0.000000000000 0.00014240  0.00000357  0.0002686 0.7000
  1  -1740.4593738067  -0.000000119799 0.00011264  0.00000295  0.0001929 0.7000
                               ***Turning on DIIS***
  2  -1740.4593738963  -0.000000089633 0.00022994  0.00000712  0.0001411 0.0000
  3  -1740.4593741538  -0.000000257505 0.00009147  0.00000210  0.0000686 0.0000
  4  -1740.4593741816  -0.000000027790 0.00008073  0.00000140  0.0000462 0.0000
  5  -1740.4593741908  -0.000000009231 0.00005544  0.00000108  0.0000283 0.0000
  6  -1740.4593741961  -0.000000005235 0.00006184  0.00000110  0.0000259 0.0000
  7  -1740.4593741992  -0.000000003085 0.00003733  0.00000068  0.0000203 0.0000
  8  -1740.4593742006  -0.000000001425 0.00003280  0.00000061  0.0000061 0.0000
                 **** Energy Check signals convergence ****

               *****************************************************
               *                     SUCCESS                       *
               *           SCF CONVERGED AFTER   9 CYCLES          *
               *****************************************************


Setting up the DFT-NL grid :

General Integration Accuracy     IntAcc      ...  4.340
Radial Grid Type                 RadialGrid  ... Gauss-Chebyshev
Angular Grid (max. acc.)         AngularGrid ... Lebedev-110
Angular grid pruning method      GridPruning ... 3 (G Style)
Weight generation scheme         WeightScheme... Becke
Basis function cutoff            BFCut       ...    1.0000e-11
Integration weight cutoff        WCut        ...    1.0000e-14
Grids for H and He will be reduced by one unit

# of grid points (after initial pruning)     ...   4652 (   0.0 sec)
# of grid points (after weights+screening)   ...   4627 (   0.0 sec)
nearest neighbour list constructed           ...    0.0 sec
Grid point re-assignment to atoms done       ...    0.0 sec
Grid point division into batches done        ...    0.0 sec
Reduced shell lists constructed in    0.0 sec

Total number of grid points                  ...     4627
Total number of batches                      ...       73
Average number of points per batch           ...       63
Average number of grid points per atom       ...     2314
Average number of shells per batch           ...     9.60 (29.09%)
Average number of basis functions per batch  ...    27.20 (25.42%)
Average number of large shells per batch     ...     9.60 (100.00%)
Average number of large basis fcns per batch ...    27.20 (100.00%)
Maximum spatial batch extension              ...  17.39, 26.34, 14.81 au
Average spatial batch extension              ...   0.92,  1.21,  0.81 au

Final grid set up in    0.0 sec

-------------------------------------------------------------------------------
                         DFT-NL dispersion correction                          
-------------------------------------------------------------------------------

SC Energy -1740.459374201 
NL    Energy 0.161385342 
SC+NL Energy -1740.297988859 
NL done in    0.0 sec
-------------------------------------------------------------------------------
Total Energy       :        -1740.29798886 Eh          -47355.91581 eV
  Last Energy change         ...   -3.8312e-10  Tolerance :   1.0000e-08
  Last MAX-Density change    ...    6.1930e-06  Tolerance :   1.0000e-07
             **** THE GBW FILE WAS UPDATED (Cu01N0_F.gbw) ****
             **** DENSITY FILE WAS UPDATED (Cu01N0_F.scfp) ****
             **** ENERGY FILE WAS UPDATED (Cu01N0_F.en.tmp) ****
             **** THE GBW FILE WAS UPDATED (Cu01N0_F.gbw) ****
             **** DENSITY FILE WAS UPDATED (Cu01N0_F.scfp) ****
Total SCF time: 0 days 0 hours 0 min 3 sec 

-------------------------   --------------------
FINAL SINGLE POINT ENERGY     -1740.297988859320
-------------------------   --------------------


----------------------------------------------------------------------------
                           ORCA NUMERICAL GRADIENT
                              (24-process run)
----------------------------------------------------------------------------

I state                        ... 1
J state                        ... 0
Number of atoms                ... 2
Derivative's order of accuracy ... 2
Central differences            ... used
Number of displacements        ... 12
Numerical increment            ... 5.000e-03 bohr
Translation invariance         ... used

The output will be reduced. Please look at the following files:
SCF program output             ... >Cu01N0_F.lastscf
Integral program output        ... >Cu01N0_F.lastint
Gradient program output        ... >Cu01N0_F.lastgrad


     Note:   There are more processes than displacements to do
     ===>:   Reducing number of processes to   3

             <<<Displacing   2/coordinate 1 (+)>>>
             <<<Displacing   2/coordinate 3 (+)>>>
             <<<Displacing   2/coordinate 2 (+)>>>
             <<<Displacing   2/coordinate 1 (-)>>>
             <<<Displacing   2/coordinate 2 (-)>>>
             <<<Displacing   2/coordinate 3 (-)>>>

------------------------------
CARTESIAN GRADIENT (NUMERICAL)
-------------------------------
   1   Cu  :   -0.000000746    0.000000889   -0.000056592
   2   F   :    0.000000746   -0.000000889    0.000056592

Norm of the cartesian gradient     ...    0.000080050
RMS gradient                       ...    0.000032680
MAX gradient                       ...    0.000056592

-------
TIMINGS
-------

Total numerical gradient time      ...       41.900 sec

------------------------------------------------------------------------------
                         ORCA GEOMETRY RELAXATION STEP
------------------------------------------------------------------------------

Reading the OPT-File                    .... done
Getting information on internals        .... done
Copying old internal coords+grads       .... done
Making the new internal coordinates     .... (new redundants).... done
Validating the new internal coordinates .... (new redundants).... done
Calculating the B-matrix                .... done
Calculating the G,G- and P matrices     .... done
Transforming gradient to internals      .... done
Projecting the internal gradient        .... done
Number of atoms                         ....   2
Number of internal coordinates          ....   1
Current Energy                          .... -1740.297988859 Eh
Current gradient norm                   ....     0.000080050 Eh/bohr
Maximum allowed component of the step   ....  0.300
Current trust radius                    ....  0.300
Updating the Hessian (BFGS)             .... done
Forming the augmented Hessian           .... done
Diagonalizing the augmented Hessian     .... done
Last element of RFO vector              ....  0.999999958
Lowest eigenvalues of augmented Hessian:
 -0.000000016
Length of the computed step             ....  0.000290644
The final length of the internal step   ....  0.000290644
Converting the step to cartesian space:
 Initial RMS(Int)=    0.0002906445
Transforming coordinates:
 Iter   0:  RMS(Cart)=    0.0000839018 RMS(Int)=    0.0002906445
 Iter   1:  RMS(Cart)=    0.0000000000 RMS(Int)=    0.0000000000
done
Storing new coordinates                 .... done

                                .--------------------.
          ----------------------|Geometry convergence|-------------------------
          Item                value                   Tolerance       Converged
          ---------------------------------------------------------------------
          Energy change      -0.0000015580            0.0000050000      YES
          RMS gradient        0.0000565920            0.0001000000      YES
          MAX gradient        0.0000565920            0.0003000000      YES
          RMS step            0.0002906445            0.0020000000      YES
          MAX step            0.0002906445            0.0040000000      YES
          ........................................................
          Max(Bonds)      0.0002      Max(Angles)    0.00
          Max(Dihed)        0.00      Max(Improp)    0.00
          ---------------------------------------------------------------------

                    ***********************HURRAY********************
                    ***        THE OPTIMIZATION HAS CONVERGED     ***
                    *************************************************


    ---------------------------------------------------------------------------
                         Redundant Internal Coordinates

                          --- Optimized Parameters ---  
                            (Angstroem and degrees)

        Definition                    OldVal   dE/dq     Step     FinalVal
    ----------------------------------------------------------------------------
     1. B(F   1,Cu  0)                1.7721 -0.000057  0.0002    1.7722   
    ----------------------------------------------------------------------------
                 *******************************************************
                 *** FINAL ENERGY EVALUATION AT THE STATIONARY POINT ***
                 ***               (AFTER    4 CYCLES)               ***
                 *******************************************************
---------------------------------
CARTESIAN COORDINATES (ANGSTROEM)
---------------------------------
  Cu     0.000000    0.000000    0.427551
  F      0.000000    0.000000   -1.344698

----------------------------
CARTESIAN COORDINATES (A.U.)
----------------------------
  NO LB      ZA    FRAG     MASS         X           Y           Z
   0 Cu   29.0000    0    63.550    0.000000    0.000000    0.807954
   1 F     9.0000    0    18.998    0.000000    0.000000   -2.541111

--------------------------------
INTERNAL COORDINATES (ANGSTROEM)
--------------------------------
 Cu     0   0   0     0.000000000000     0.00000000     0.00000000
 F      1   0   0     1.772248936905     0.00000000     0.00000000

---------------------------
INTERNAL COORDINATES (A.U.)
---------------------------
 Cu     0   0   0     0.000000000000     0.00000000     0.00000000
 F      1   0   0     3.349065131883     0.00000000     0.00000000

---------------------
BASIS SET INFORMATION
---------------------
There are 2 groups of distinct atoms

 Group   1 Type Cu  : 17s13p7d2f1g contracted to 6s6p4d2f1g pattern {842111/631111/4111/11/1}
 Group   2 Type F   : 12s7p3d1f contracted to 6s4p3d1f pattern {621111/4111/111/1}

Atom   0Cu   basis set group =>   1
Atom   1F    basis set group =>   2
----------------------------------
AUXILIARY/JK BASIS SET INFORMATION
----------------------------------
There are 2 groups of distinct atoms

 Group   1 Type Cu  : 19s14p12d10f7g3h1i contracted to 16s13p11d9f5g3h1i pattern {4111111111111111/2111111111111/21111111111/211111111/31111/111/1}
 Group   2 Type F   : 14s10p6d2f1g contracted to 10s8p4d2f1g pattern {5111111111/31111111/3111/11/1}

Atom   0Cu   basis set group =>   1
Atom   1F    basis set group =>   2


           ************************************************************
           *        Program running with 24 parallel MPI-processes    *
           *              working on a common directory               *
           ************************************************************
------------------------------------------------------------------------------
                           ORCA GTO INTEGRAL CALCULATION
------------------------------------------------------------------------------

                         BASIS SET STATISTICS AND STARTUP INFO

 # of primitive gaussian shells          ...   63
 # of primitive gaussian functions       ...  169
 # of contracted shells                  ...   33
 # of contracted basis functions         ...  107
 Highest angular momentum                ...    4
 Maximum contraction depth               ...    8
 Integral package used                   ... LIBINT
 Integral threshhold            Thresh   ...  2.500e-11
 Primitive cut-off              TCut     ...  2.500e-12


------------------------------ INTEGRAL EVALUATION ----------------------------


 * One electron integrals 
 Pre-screening matrix                    ... done
 Shell pair data                         ... done (   0.000 sec)



           ************************************************************
           *        Program running with 24 parallel MPI-processes    *
           *              working on a common directory               *
           ************************************************************
[...]
  25   0.0000       0.174085         4.7371 
  26   0.0000       0.174085         4.7371 
  27   0.0000       0.185902         5.0586 
  28   0.0000       0.185902         5.0586 
  29   0.0000       0.217964         5.9311 
  30   0.0000       0.217965         5.9311 
  31   0.0000       0.235818         6.4169 
  32   0.0000       0.287275         7.8171 
  33   0.0000       0.287275         7.8171 
  34   0.0000       0.323200         8.7947 
  35   0.0000       0.428274        11.6539 
  36   0.0000       0.633462        17.2374 
  37   0.0000       0.633469        17.2376 
  38   0.0000       0.696137        18.9428 
  39   0.0000       0.696137        18.9428 
  40   0.0000       0.703301        19.1378 
  41   0.0000       0.779017        21.1981 
  42   0.0000       0.786607        21.4047 
  43   0.0000       0.786607        21.4047 
  44   0.0000       0.885576        24.0978 
  45   0.0000       0.885576        24.0978 
  46   0.0000       0.953988        25.9593 
  47   0.0000       0.953988        25.9593 
  48   0.0000       1.117735        30.4151 
  49   0.0000       1.117735        30.4151 
  50   0.0000       1.122222        30.5372 
  51   0.0000       1.178574        32.0706 
  52   0.0000       1.407801        38.3082 
  53   0.0000       2.427164        66.0465 
  54   0.0000       2.439922        66.3937 
  55   0.0000       2.439976        66.3951 
  56   0.0000       2.470673        67.2304 
  57   0.0000       2.470673        67.2304 
  58   0.0000       3.097766        84.2945 
  59   0.0000       3.097766        84.2945 
  60   0.0000       3.173381        86.3521 
  61   0.0000       3.274736        89.1101 
  62   0.0000       3.511500        95.5528 
  63   0.0000       3.519815        95.7790 
  64   0.0000       3.519815        95.7790 
  65   0.0000       3.520632        95.8013 
  66   0.0000       3.520632        95.8013 
  67   0.0000       3.524550        95.9079 
  68   0.0000       3.524551        95.9079 
  69   0.0000       3.616690        98.4151 
  70   0.0000       3.616690        98.4151 
  71   0.0000       3.768445       102.5446 
  72   0.0000       3.768450       102.5447 
  73   0.0000       3.845366       104.6377 
  74   0.0000       3.845366       104.6377 
  75   0.0000       3.970190       108.0344 
  76   0.0000       4.100060       111.5683 
  77   0.0000       4.414328       120.1200 
  78   0.0000       7.091860       192.9793 
  79   0.0000       7.091876       192.9798 
  80   0.0000       7.104443       193.3217 
  81   0.0000       7.104443       193.3217 
  82   0.0000       7.128914       193.9876 
  83   0.0000       7.128914       193.9876 
  84   0.0000       7.210040       196.1952 
  85   0.0000       8.679445       236.1797 
  86   0.0000       8.679980       236.1943 
  87   0.0000       8.729488       237.5414 
  88   0.0000       8.729488       237.5414 
  89   0.0000       8.932810       243.0741 
  90   0.0000      13.116861       356.9279 
  91   0.0000      13.116862       356.9280 
  92   0.0000      13.117385       356.9422 
  93   0.0000      13.117385       356.9422 
  94   0.0000      13.119358       356.9959 
  95   0.0000      13.119358       356.9959 
  96   0.0000      13.121791       357.0621 
  97   0.0000      13.121811       357.0626 
  98   0.0000      13.126279       357.1842 
  99   0.0000      13.299079       361.8863 
 100   0.0000      13.299079       361.8863 
 101   0.0000      13.301905       361.9632 
 102   0.0000      13.301926       361.9638 
 103   0.0000      13.334210       362.8423 
 104   0.0000      13.334210       362.8423 
 105   0.0000      13.501288       367.3887 
 106   0.0000      57.508181      1564.8772 

                    ********************************
                    * MULLIKEN POPULATION ANALYSIS *
                    ********************************

-----------------------
MULLIKEN ATOMIC CHARGES
-----------------------
   0 Cu:    0.689839
   1 F :   -0.689839
Sum of atomic charges:   -0.0000000

--------------------------------
MULLIKEN REDUCED ORBITAL CHARGES
--------------------------------
  0 Cus       :     6.318197  s :     6.318197
      pz      :     4.045791  p :    12.104930
      px      :     4.029570
      py      :     4.029570
      dz2     :     1.884168  d :     9.885341
      dxz     :     2.000050
      dyz     :     2.000050
      dx2y2   :     2.000536
      dxy     :     2.000536
      f0      :     0.000815  f :     0.001687
      f+1     :     0.000395
      f-1     :     0.000395
      f+2     :     0.000041
      f-2     :     0.000041
      f+3     :     0.000000
      f-3     :     0.000000
      g0      :     0.000003  g :     0.000005
      g+1     :     0.000001
      g-1     :     0.000001
      g+2     :     0.000000
      g-2     :     0.000000
      g+3     :     0.000000
      g-3     :     0.000000
      g+4     :     0.000000
      g-4     :     0.000000
  1 F s       :     3.978885  s :     3.978885
      pz      :     1.764788  p :     5.706228
      px      :     1.970720
      py      :     1.970720
      dz2     :     0.007245  d :     0.004518
      dxz     :    -0.000784
      dyz     :    -0.000784
      dx2y2   :    -0.000580
      dxy     :    -0.000580
      f0      :     0.000109  f :     0.000210
      f+1     :     0.000047
      f-1     :     0.000047
      f+2     :     0.000003
      f-2     :     0.000003
      f+3     :     0.000000
      f-3     :     0.000000


                     *******************************
                     * LOEWDIN POPULATION ANALYSIS *
                     *******************************

----------------------
LOEWDIN ATOMIC CHARGES
----------------------
   0 Cu:    0.561330
   1 F :   -0.561330

-------------------------------
LOEWDIN REDUCED ORBITAL CHARGES
-------------------------------
  0 Cus       :     6.200343  s :     6.200343
      pz      :     4.118162  p :    12.237774
      px      :     4.059806
      py      :     4.059806
      dz2     :     1.957361  d :     9.997263
      dxz     :     2.022672
      dyz     :     2.022672
      dx2y2   :     1.997278
      dxy     :     1.997278
      f0      :     0.001763  f :     0.003278
      f+1     :     0.000711
      f-1     :     0.000711
      f+2     :     0.000046
      f-2     :     0.000046
      f+3     :     0.000000
      f-3     :     0.000000
      g0      :     0.000007  g :     0.000011
      g+1     :     0.000002
      g-1     :     0.000002
      g+2     :     0.000000
      g-2     :     0.000000
      g+3     :     0.000000
      g-3     :     0.000000
      g+4     :     0.000000
      g-4     :     0.000000
  1 F s       :     3.835260  s :     3.835260
      pz      :     1.837905  p :     5.647353
      px      :     1.904724
      py      :     1.904724
      dz2     :     0.048992  d :     0.078243
      dxz     :     0.011961
      dyz     :     0.011961
      dx2y2   :     0.002664
      dxy     :     0.002664
      f0      :     0.000206  f :     0.000475
      f+1     :     0.000123
      f-1     :     0.000123
      f+2     :     0.000012
      f-2     :     0.000012
      f+3     :     0.000000
      f-3     :     0.000000


                      *****************************
                      * MAYER POPULATION ANALYSIS *
                      *****************************

  NA   - Mulliken gross atomic population
  ZA   - Total nuclear charge
  QA   - Mulliken gross atomic charge
  VA   - Mayer's total valence
  BVA  - Mayer's bonded valence
  FA   - Mayer's free valence

  ATOM       NA         ZA         QA         VA         BVA        FA
  0 Cu    28.3102    29.0000     0.6898     0.6308     0.6308     0.0000
  1 F      9.6898     9.0000    -0.6898     0.6308     0.6308    -0.0000

  Mayer bond orders larger than 0.100000
B(  0-Cu,  1-F ) :   0.6308 

-------
TIMINGS
-------

Total SCF time: 0 days 0 hours 0 min 2 sec 

Total time                  ....       2.760 sec
Sum of individual times     ....       2.523 sec  ( 91.4%)

Fock matrix formation       ....       2.337 sec  ( 84.7%)
  XC integration            ....       0.131 sec  (  5.6% of F)
    Basis function eval.    ....       0.014 sec  ( 10.6% of XC)
    Density eval.           ....       0.020 sec  ( 15.4% of XC)
    XC-Functional eval.     ....       0.010 sec  (  7.6% of XC)
    XC-Potential eval.      ....       0.024 sec  ( 18.2% of XC)
Diagonalization             ....       0.015 sec  (  0.5%)
Density matrix formation    ....       0.003 sec  (  0.1%)
Population analysis         ....       0.003 sec  (  0.1%)
Initial guess               ....       0.007 sec  (  0.2%)
Orbital Transformation      ....       0.000 sec  (  0.0%)
Orbital Orthonormalization  ....       0.003 sec  (  0.1%)
DIIS solution               ....       0.007 sec  (  0.3%)
Grid generation             ....       0.152 sec  (  5.5%)

-------------------------   --------------------
FINAL SINGLE POINT ENERGY     -1740.297988865771
-------------------------   --------------------

                                *** OPTIMIZATION RUN DONE ***

                            ***************************************
                            *     ORCA property calculations      *
                            ***************************************

                                    ---------------------
                                    Active property flags
                                    ---------------------
   (+) Dipole Moment


------------------------------------------------------------------------------
                       ORCA ELECTRIC PROPERTIES CALCULATION
------------------------------------------------------------------------------

Dipole Moment Calculation                       ... on
Quadrupole Moment Calculation                   ... off
Polarizability Calculation                      ... off
GBWName                                         ... Cu01N0_F.gbw
Electron density file                           ... Cu01N0_F.scfp
The origin for moment calculation is the CENTER OF MASS  = ( 0.000000,  0.000000  0.037184)

-------------
DIPOLE MOMENT
-------------
                                X             Y             Z
Electronic contribution:     -0.00000       0.00000       3.00408
Nuclear contribution   :      0.00000       0.00000      -0.85232
                        -----------------------------------------
Total Dipole Moment    :     -0.00000       0.00000       2.15176
                        -----------------------------------------
Magnitude (a.u.)       :      2.15176
Magnitude (Debye)      :      5.46934



--------------------
Rotational spectrum 
--------------------
 
Rotational constants in cm-1:     0.000000     0.366970     0.366970 
Rotational constants in MHz :     0.000000 11001.484018 11001.484018 

 Dipole components along the rotational axes: 
x,y,z [a.u.] :     2.151762     0.000000    -0.000000 
x,y,z [Debye]:     5.469345     0.000000    -0.000000 

 

----------------------------------------------------------------------------
                           ORCA NUMERICAL FREQUENCIES
                              (24-process run)
----------------------------------------------------------------------------

Number of atoms                ... 2
Central differences            ... used
Number of displacements        ... 12
Numerical increment            ... 5.000e-03 bohr
IR-spectrum generation         ... on
Raman-spectrum generation      ... off
Surface Crossing Hessian       ... off

 WARNING: There are more processes than displacements to do
  ====> : Reducing number of processes to   6

The output will be reduced. Please look at the following files:
SCF program output             ... >Cu01N0_F.lastscf
Integral program output        ... >Cu01N0_F.lastint
Gradient program output        ... >Cu01N0_F.lastgrad
Dipole moment program output   ... >Cu01N0_F.lastmom
AutoCI program output          ... >Cu01N0_F.lastautoci


         <<< Energy and Gradient at the input geometry >>>

        <<< Energy and Gradient at displaced geometries >>>
             <<<Displacing   1/coordinate 3 (+)>>>
             <<<Displacing   1/coordinate 2 (+)>>>
             <<<Displacing   2/coordinate 1 (+)>>>
             <<<Displacing   1/coordinate 1 (+)>>>
             <<<Displacing   2/coordinate 2 (+)>>>
             <<<Displacing   2/coordinate 3 (+)>>>
             <<<Displacing   1/coordinate 3 (-)>>>
             <<<Displacing   2/coordinate 3 (-)>>>
             <<<Displacing   1/coordinate 2 (-)>>>
             <<<Displacing   2/coordinate 2 (-)>>>
             <<<Displacing   2/coordinate 1 (-)>>>
             <<<Displacing   1/coordinate 1 (-)>>>
Warning: T+R mode no 5 is zero 

-----------------------
VIBRATIONAL FREQUENCIES
-----------------------

Scaling factor for frequencies =  1.000000000 (already applied!)

   0:         0.00 cm**-1
   1:         0.00 cm**-1
   2:         0.00 cm**-1
   3:         0.00 cm**-1
   4:         0.00 cm**-1
   5:       591.38 cm**-1


------------
NORMAL MODES
------------

These modes are the cartesian displacements weighted by the diagonal matrix
M(i,i)=1/sqrt(m[i]) where m[i] is the mass of the displaced atom
Thus, these vectors are normalized but *not* orthogonal

                  0          1          2          3          4          5    
      0       0.000000   0.000000   0.000000   0.000000   0.000000   0.000000
      1       0.000000   0.000000   0.000000   0.000000   0.000000   0.000000
      2       0.000000   0.000000   0.000000   0.000000   0.000000   0.286421
      3       0.000000   0.000000   0.000000   0.000000   0.000000   0.000000
      4       0.000000   0.000000   0.000000   0.000000   0.000000   0.000000
      5       0.000000   0.000000   0.000000   0.000000   0.000000  -0.958104


-----------
IR SPECTRUM  
-----------

 Mode    freq (cm**-1)   T**2         TX         TY         TZ
-------------------------------------------------------------------
   5:       591.38   59.848802  (  0.000000   0.000005   7.736201)

The first frequency considered to be a vibration is 5
The total number of vibrations considered is 1


--------------------------
THERMOCHEMISTRY AT 298.15K
--------------------------

Temperature         ... 298.15 K
Pressure            ... 1.00 atm
Total Mass          ... 82.55 AMU
The molecule is recognized as being linear

Throughout the following assumptions are being made:
  (1) The electronic state is orbitally nondegenerate
  (2) There are no thermally accessible electronically excited states
  (3) Hindered rotations indicated by low frequency modes are not
      treated as such but are treated as vibrations and this may
      cause some error
  (4) All equations used are the standard statistical mechanics
      equations for an ideal gas
  (5) All vibrations are strictly harmonic

freq.     591.38  E(vib)   ...       0.10 

------------
INNER ENERGY
------------

The inner energy is: U= E(el) + E(ZPE) + E(vib) + E(rot) + E(trans)
    E(el)   - is the total energy from the electronic structure calculation
              = E(kin-el) + E(nuc-el) + E(el-el) + E(nuc-nuc)
    E(ZPE)  - the the zero temperature vibrational energy from the frequency calculation
    E(vib)  - the the finite temperature correction to E(ZPE) due to population
              of excited vibrational states
    E(rot)  - is the rotational thermal energy
    E(trans)- is the translational thermal energy

Summary of contributions to the inner energy U:
Electronic energy                ...  -1740.29798887 Eh
Zero point energy                ...      0.00134727 Eh       0.85 kcal/mol
Thermal vibrational correction   ...      0.00016478 Eh       0.10 kcal/mol
Thermal rotational correction    ...      0.00094418 Eh       0.59 kcal/mol
Thermal translational correction ...      0.00141627 Eh       0.89 kcal/mol
-----------------------------------------------------------------------
Total thermal energy                  -1740.29411637 Eh


Summary of corrections to the electronic energy:
(perhaps to be used in another calculation)
Total thermal correction                  0.00252523 Eh       1.58 kcal/mol
Non-thermal (ZPE) correction              0.00134727 Eh       0.85 kcal/mol
-----------------------------------------------------------------------
Total correction                          0.00387250 Eh       2.43 kcal/mol


--------
ENTHALPY
--------

The enthalpy is H = U + kB*T
                kB is Boltzmann's constant
Total free energy                 ...  -1740.29411637 Eh 
Thermal Enthalpy correction       ...      0.00094421 Eh       0.59 kcal/mol
-----------------------------------------------------------------------
Total Enthalpy                    ...  -1740.29317216 Eh


Note: Rotational entropy computed according to Herzberg 
Infrared and Raman Spectra, Chapter V,1, Van Nostrand Reinhold, 1945 
Point Group:  Cinfv, Symmetry Number:   1  
Rotational constants in cm-1:     0.000000     0.366970     0.366970 

Vibrational entropy computed according to the QRRHO of S. Grimme
Chem.Eur.J. 2012 18 9955


-------
ENTROPY
-------

The entropy contributions are T*S = T*(S(el)+S(vib)+S(rot)+S(trans))
     S(el)   - electronic entropy
     S(vib)  - vibrational entropy
     S(rot)  - rotational entropy
     S(trans)- translational entropy
The entropies will be listed as mutliplied by the temperature to get
units of energy

Electronic entropy                ...      0.00000000 Eh      0.00 kcal/mol
Vibrational entropy               ...      0.00022105 Eh      0.14 kcal/mol
Rotational entropy                ...      0.00692678 Eh      4.35 kcal/mol
Translational entropy             ...      0.01859962 Eh     11.67 kcal/mol
-----------------------------------------------------------------------
Final entropy term                ...      0.02574745 Eh     16.16 kcal/mol

In case the symmetry of your molecule has not been determined correctly
or in case you have a reason to use a different symmetry number we print 
out the resulting rotational entropy values for sn=1,12 :
 --------------------------------------------------------
|  sn= 1 | S(rot)=             -inf Eh      -inf kcal/mol|
|  sn= 2 | S(rot)=             -inf Eh      -inf kcal/mol|
|  sn= 3 | S(rot)=             -inf Eh      -inf kcal/mol|
|  sn= 4 | S(rot)=             -inf Eh      -inf kcal/mol|
|  sn= 5 | S(rot)=             -inf Eh      -inf kcal/mol|
|  sn= 6 | S(rot)=             -inf Eh      -inf kcal/mol|
|  sn= 7 | S(rot)=             -inf Eh      -inf kcal/mol|
|  sn= 8 | S(rot)=             -inf Eh      -inf kcal/mol|
|  sn= 9 | S(rot)=             -inf Eh      -inf kcal/mol|
|  sn=10 | S(rot)=             -inf Eh      -inf kcal/mol|
|  sn=11 | S(rot)=             -inf Eh      -inf kcal/mol|
|  sn=12 | S(rot)=             -inf Eh      -inf kcal/mol|
 --------------------------------------------------------


-------------------
GIBBS FREE ENERGY
-------------------

The Gibbs free energy is G = H - T*S

Total enthalpy                    ...  -1740.29317216 Eh 
Total entropy correction          ...     -0.02574745 Eh    -16.16 kcal/mol
-----------------------------------------------------------------------
Final Gibbs free energy         ...  -1740.31891961 Eh

For completeness - the Gibbs free energy minus the electronic energy
G-E(el)                           ...     -0.02093074 Eh    -13.13 kcal/mol


Total Time for Numerical Frequencies  :       344.903 sec

Timings for individual modules:

Sum of individual times         ...      242.469 sec (=   4.041 min)
GTO integral calculation        ...        3.922 sec (=   0.065 min)   1.6 %
SCF iterations                  ...       21.684 sec (=   0.361 min)   8.9 %
SCF Gradient evaluation         ...      216.717 sec (=   3.612 min)  89.4 %
Geometry relaxation             ...        0.145 sec (=   0.002 min)   0.1 %
                             ****ORCA TERMINATED NORMALLY****
TOTAL RUN TIME: 0 days 0 hours 9 minutes 2 seconds 122 msec
