
                                 *****************
                                 * O   R   C   A *
                                 *****************

           --- An Ab Initio, DFT and Semiempirical electronic structure package ---

                  #######################################################
                  #                        -***-                        #
                  #          Department of theory and spectroscopy      #
                  #               Directorship: Frank Neese             #
                  #        Max Planck Institute fuer Kohlenforschung    #
                  #                Kaiser Wilhelm Platz 1               #
                  #                 D-45470 Muelheim/Ruhr               #
                  #                      Germany                        #
                  #                                                     #
                  #                  All rights reserved                #
                  #                        -***-                        #
                  #######################################################


                         Program Version 4.2.0 -  RELEASE  -


 With contributions from (in alphabetic order):
   Daniel Aravena         : Magnetic Suceptibility
   Michael Atanasov       : Ab Initio Ligand Field Theory (pilot matlab implementation)
   Alexander A. Auer      : GIAO ZORA, VPT2
   Ute Becker             : Parallelization
   Giovanni Bistoni       : ED, misc. LED, open-shell LED, HFLED
   Martin Brehm           : Molecular dynamics
   Dmytro Bykov           : SCF Hessian
   Vijay G. Chilkuri      : MRCI spin determinant printing, contributions to CSF-ICE
   Dipayan Datta          : RHF DLPNO-CCSD density
   Achintya Kumar Dutta   : EOM-CC, STEOM-CC
   Dmitry Ganyushin       : Spin-Orbit,Spin-Spin,Magnetic field MRCI
   Miquel Garcia          : C-PCM Hessian, Gaussian charge scheme
   Yang Guo               : DLPNO-NEVPT2, CIM, IAO-localization
   Andreas Hansen         : Spin unrestricted coupled pair/coupled cluster methods
   Benjamin Helmich-Paris : CASSCF linear response (MC-RPA)
   Lee Huntington         : MR-EOM, pCC
   Robert Izsak           : Overlap fitted RIJCOSX, COSX-SCS-MP3, EOM
   Christian Kollmar      : KDIIS, OOCD, Brueckner-CCSD(T), CCSD density
   Simone Kossmann        : Meta GGA functionals, TD-DFT gradient, OOMP2, MP2 Hessian
   Martin Krupicka        : AUTO-CI
   Lucas Lang             : DCDCAS
   Dagmar Lenk            : GEPOL surface, SMD
   Dimitrios Liakos       : Extrapolation schemes; Compound Job, initial MDCI parallelization
   Dimitrios Manganas     : Further ROCIS development; embedding schemes
   Dimitrios Pantazis     : SARC Basis sets
   Taras Petrenko         : DFT Hessian,TD-DFT gradient, ASA, ECA, R-Raman, ABS, FL, XAS/XES, NRVS
   Peter Pinski           : DLPNO-MP2, DLPNO-MP2 Gradient
   Christoph Reimann      : Effective Core Potentials
   Marius Retegan         : Local ZFS, SOC
   Christoph Riplinger    : Optimizer, TS searches, QM/MM, DLPNO-CCSD(T), (RO)-DLPNO pert. Triples
   Tobias Risthaus        : Range-separated hybrids, TD-DFT gradient, RPA, STAB
   Michael Roemelt        : Original ROCIS implementation
   Masaaki Saitow         : Open-shell DLPNO-CCSD energy and density
   Barbara Sandhoefer     : DKH picture change effects
   Avijit Sen             : IP-ROCIS
   Kantharuban Sivalingam : CASSCF convergence, NEVPT2, FIC-MRCI
   Bernardo de Souza      : ESD, SOC TD-DFT
   Georgi Stoychev        : AutoAux, RI-MP2 NMR
   Willem Van den Heuvel  : Paramagnetic NMR
   Boris Wezisla          : Elementary symmetry handling
   Frank Wennmohs         : Technical directorship


 We gratefully acknowledge several colleagues who have allowed us to
 interface, adapt or use parts of their codes:
   Stefan Grimme, W. Hujo, H. Kruse,             : VdW corrections, initial TS optimization,
                  C. Bannwarth                     DFT functionals, gCP, sTDA/sTD-DF
   Ed Valeev, F. Pavosevic, A. Kumar             : LibInt (2-el integral package), F12 methods
   Garnet Chan, S. Sharma, J. Yang, R. Olivares  : DMRG
   Ulf Ekstrom                                   : XCFun DFT Library
   Mihaly Kallay                                 : mrcc  (arbitrary order and MRCC methods)
   Andreas Klamt, Michael Diedenhofen            : otool_cosmo (COSMO solvation model)
   Jiri Pittner, Ondrej Demel                    : Mk-CCSD
   Frank Weinhold                                : gennbo (NPA and NBO analysis)
   Christopher J. Cramer and Donald G. Truhlar   : smd solvation model
   Lars Goerigk                                  : TD-DFT with DH, B97 family of functionals
   V. Asgeirsson, H. Jonsson                     : NEB implementation
   FAccTs GmbH                                   : IRC, NEB, NEB-TS, Multilevel, MM, QM/MM, CI optimization
   S Lehtola, MJT Oliveira, MAL Marques          : LibXC Library


 Your calculation uses the libint2 library for the computation of 2-el integrals
 For citations please refer to: http://libint.valeyev.net

 Your ORCA version has been built with support for libXC version: 4.2.3
 For citations please refer to: https://tddft.org/programs/libxc/

 This ORCA versions uses:
   CBLAS   interface :  Fast vector & matrix operations
   LAPACKE interface :  Fast linear algebra routines
   SCALAPACK package :  Parallel linear algebra routines


Your calculation utilizes the DFT-NL dispersion correction.
Cite in your paper:
Vydrov, O. A.; Van Voorhis, T. J. Chem. Phys. 2010, 133, 244103
Hujo, W.; Grimme, S. J. Chem. Theory Comput. 2011, 7, 3866 
   

----- Orbital basis set information -----
Your calculation utilizes the basis: def2-TZVPPD
   F. Weigend and R. Ahlrichs, Phys. Chem. Chem. Phys. 7, 3297 (2005).
   D. Rappoport and F. Furche, J. Chem. Phys. 133 134105 (2010).

----- AuxJK basis set information -----
Your calculation utilizes the auxiliary basis: def2/JK
   H-Ba, Hf-Rn: F. Weigend, J. Comput. Chem. 29, 167 (2008).

================================================================================
                                        WARNINGS
                       Please study these warnings very carefully!
================================================================================


WARNING: Geometry Optimization
  ===> : Switching off AutoStart
         For restart on a previous wavefunction, please use MOREAD

INFO   : the flag for use of LIBINT has been found!

================================================================================
                                       INPUT FILE
================================================================================
NAME = Cu03C1_D3H.in
|  1> #
|  2> # Cu03C1_D3H wB97M-V/Def2-TZVPPD
|  3> #
|  4> ! wb97m-v def2-tzvppd def2/jk grid4 nofinalgrid opt xyzfile numfreq numgrad
|  5> 
|  6> *xyz 1 1
|  7> Cu       0.000000    1.349261   -0.000000 
|  8> Cu       1.168494   -0.674630    0.000000 
|  9> Cu      -1.168494   -0.674630   -0.000000 
| 10> *
| 11> 
| 12> %maxcore 5000
| 13> 
| 14> %pal
| 15> nprocs = 24
| 16> end
| 17> 
| 18> 
| 19>                          ****END OF INPUT****
================================================================================

                       *****************************
                       * Geometry Optimization Run *
                       *****************************

Geometry optimization settings:
Update method            Update   .... BFGS
Choice of coordinates    CoordSys .... Z-matrix Internals
Initial Hessian          InHess   .... Almoef's Model

Convergence Tolerances:
Energy Change            TolE     ....  5.0000e-06 Eh
Max. Gradient            TolMAXG  ....  3.0000e-04 Eh/bohr
RMS Gradient             TolRMSG  ....  1.0000e-04 Eh/bohr
Max. Displacement        TolMAXD  ....  4.0000e-03 bohr
RMS Displacement         TolRMSD  ....  2.0000e-03 bohr
Strict Convergence                ....  False
------------------------------------------------------------------------------
                        ORCA OPTIMIZATION COORDINATE SETUP
------------------------------------------------------------------------------

The optimization will be done in new redundant internal coordinates
Making redundant internal coordinates   ...  (new redundants) done
Evaluating the initial hessian          ...  (Almloef) done
Evaluating the coordinates              ...  done
Calculating the B-matrix                .... done
Calculating the G-matrix                .... done
Diagonalizing the G-matrix              .... done
The first mode is                       ....    3
The number of degrees of freedom        ....    3

    -----------------------------------------------------------------
                    Redundant Internal Coordinates


    -----------------------------------------------------------------
         Definition                    Initial Value    Approx d2E/dq
    -----------------------------------------------------------------
      1. B(Cu  1,Cu  0)                  2.3370         1.973010   
      2. B(Cu  2,Cu  1)                  2.3370         1.973010   
      3. B(Cu  2,Cu  0)                  2.3370         1.973010   
      4. A(Cu  1,Cu  0,Cu  2)           60.0000         1.051884   
      5. A(Cu  0,Cu  1,Cu  2)           60.0000         1.051884   
      6. A(Cu  0,Cu  2,Cu  1)           60.0000         1.051884   
    -----------------------------------------------------------------

Number of atoms                         .... 3
Number of degrees of freedom            .... 6

         *************************************************************
         *                GEOMETRY OPTIMIZATION CYCLE   1            *
         *************************************************************
---------------------------------
CARTESIAN COORDINATES (ANGSTROEM)
---------------------------------
  Cu     0.000000    1.349261   -0.000000
  Cu     1.168494   -0.674630    0.000000
  Cu    -1.168494   -0.674630   -0.000000

----------------------------
CARTESIAN COORDINATES (A.U.)
----------------------------
  NO LB      ZA    FRAG     MASS         X           Y           Z
   0 Cu   29.0000    0    63.550    0.000000    2.549734   -0.000000
   1 Cu   29.0000    0    63.550    2.208134   -1.274866    0.000000
   2 Cu   29.0000    0    63.550   -2.208134   -1.274866   -0.000000

--------------------------------
INTERNAL COORDINATES (ANGSTROEM)
--------------------------------
 Cu     0   0   0     0.000000000000     0.00000000     0.00000000
 Cu     1   0   0     2.336988020491     0.00000000     0.00000000
 Cu     2   1   0     2.336988000000    60.00000029     0.00000000

---------------------------
INTERNAL COORDINATES (A.U.)
---------------------------
 Cu     0   0   0     0.000000000000     0.00000000     0.00000000
 Cu     1   0   0     4.416267336982     0.00000000     0.00000000
 Cu     2   1   0     4.416267298260    60.00000029     0.00000000

---------------------
BASIS SET INFORMATION
---------------------
There are 1 groups of distinct atoms

 Group   1 Type Cu  : 17s13p7d2f1g contracted to 6s6p4d2f1g pattern {842111/631111/4111/11/1}

Atom   0Cu   basis set group =>   1
Atom   1Cu   basis set group =>   1
Atom   2Cu   basis set group =>   1
----------------------------------
AUXILIARY/JK BASIS SET INFORMATION
----------------------------------
There are 1 groups of distinct atoms

 Group   1 Type Cu  : 19s14p12d10f7g3h1i contracted to 16s13p11d9f5g3h1i pattern {4111111111111111/2111111111111/21111111111/211111111/31111/111/1}

Atom   0Cu   basis set group =>   1
Atom   1Cu   basis set group =>   1
Atom   2Cu   basis set group =>   1


           ************************************************************
           *        Program running with 24 parallel MPI-processes    *
           *              working on a common directory               *
           ************************************************************
------------------------------------------------------------------------------
                           ORCA GTO INTEGRAL CALCULATION
------------------------------------------------------------------------------

                         BASIS SET STATISTICS AND STARTUP INFO

 # of primitive gaussian shells          ...  120
 # of primitive gaussian functions       ...  342
 # of contracted shells                  ...   57
 # of contracted basis functions         ...  201
 Highest angular momentum                ...    4
 Maximum contraction depth               ...    8
 Integral package used                   ... LIBINT
 Integral threshhold            Thresh   ...  2.500e-11
 Primitive cut-off              TCut     ...  2.500e-12


------------------------------ INTEGRAL EVALUATION ----------------------------


 * One electron integrals 
 Pre-screening matrix                    ... done
 Shell pair data                         ... done (   0.000 sec)



           ************************************************************
           *        Program running with 24 parallel MPI-processes    *
           *              working on a common directory               *
           ************************************************************
-------------------------------------------------------------------------------
                                 ORCA SCF
-------------------------------------------------------------------------------

------------
SCF SETTINGS
------------
Hamiltonian:
 Density Functional     Method          .... DFT(GTOs)
 Exchange Functional    Exchange        .... WB97M-V
 Correlation Functional Correlation     .... WB97M-V
 Gradients option       PostSCFGGA      .... off
 Hybrid DFT is turned on
   Fraction HF Exchange ScalHFX         ....  0.150000
   Scaling of DF-GGA-X  ScalDFX         ....  0.000000
   Scaling of DF-GGA-C  ScalDFC         ....  1.000000
   Scaling of DF-LDA-C  ScalLDAC        ....  1.000000
   Perturbative correction              ....  0.000000
   Density functional embedding theory  .... OFF
 Long-range corrected/Screened/Range-Separated Hybrid DFT is turned on
   Amount of maximum screened exact exchange              ....  0.850000
   Range separation parameter mu (erf(mu*r12)/r12)        ....  0.300000
   NL short-range parameter             ....  6.000000
   NL long-range parameter              ....  0.010000


General Settings:
 Integral files         IntName         .... Cu03C1_D3H
 Hartree-Fock type      HFTyp           .... RHF
 Total Charge           Charge          ....    1
 Multiplicity           Mult            ....    1
 Number of Electrons    NEL             ....   86
 Basis Dimension        Dim             ....  201
 Nuclear Repulsion      ENuc            ....    571.2969380830 Eh

Convergence Acceleration:
 DIIS                   CNVDIIS         .... on
   Start iteration      DIISMaxIt       ....    12
   Startup error        DIISStart       ....  0.200000
   # of expansion vecs  DIISMaxEq       ....     5
   Bias factor          DIISBfac        ....   1.050
   Max. coefficient     DIISMaxC        ....  10.000
 Newton-Raphson         CNVNR           .... off
 SOSCF                  CNVSOSCF        .... off
 Level Shifting         CNVShift        .... on
   Level shift para.    LevelShift      ....    0.2500
   Turn off err/grad.   ShiftErr        ....    0.0010
 Zerner damping         CNVZerner       .... off
 Static damping         CNVDamp         .... on
   Fraction old density DampFac         ....    0.7000
   Max. Damping (<1)    DampMax         ....    0.9800
   Min. Damping (>=0)   DampMin         ....    0.0000
   Turn off err/grad.   DampErr         ....    0.1000
 Fernandez-Rico         CNVRico         .... off

SCF Procedure:
 Maximum # iterations   MaxIter         ....   125
 SCF integral mode      SCFMode         .... Direct
   Integral package                     .... LIBINT
 Reset frequency        DirectResetFreq ....    20
 Integral Threshold     Thresh          ....  2.500e-11 Eh
 Primitive CutOff       TCut            ....  2.500e-12 Eh

Convergence Tolerance:
 Convergence Check Mode ConvCheckMode   .... Total+1el-Energy
 Convergence forced     ConvForced      .... 0
 Energy Change          TolE            ....  1.000e-08 Eh
 1-El. energy change                    ....  1.000e-05 Eh
 DIIS Error             TolErr          ....  5.000e-07


Diagonalization of the overlap matrix:
Smallest eigenvalue                        ... 7.677e-04
Time for diagonalization                   ...    0.008 sec
Threshold for overlap eigenvalues          ... 1.000e-08
Number of eigenvalues below threshold      ... 0
Time for construction of square roots      ...    0.005 sec
Total time needed                          ...    0.014 sec

-------------------
DFT GRID GENERATION
-------------------

General Integration Accuracy     IntAcc      ...  4.670
Radial Grid Type                 RadialGrid  ... Gauss-Chebyshev
Angular Grid (max. acc.)         AngularGrid ... Lebedev-302
Angular grid pruning method      GridPruning ... 3 (G Style)
Weight generation scheme         WeightScheme... Becke
Basis function cutoff            BFCut       ...    1.0000e-11
Integration weight cutoff        WCut        ...    1.0000e-14
Grids for H and He will be reduced by one unit

# of grid points (after initial pruning)     ...  28668 (   0.0 sec)
# of grid points (after weights+screening)   ...  28566 (   0.0 sec)
nearest neighbour list constructed           ...    0.0 sec
Grid point re-assignment to atoms done       ...    0.0 sec
Grid point division into batches done        ...    0.2 sec
Reduced shell lists constructed in    0.2 sec

Total number of grid points                  ...    28566
Total number of batches                      ...      448
Average number of points per batch           ...       63
Average number of grid points per atom       ...     9522
Average number of shells per batch           ...    13.75 (24.12%)
Average number of basis functions per batch  ...    38.75 (19.28%)
Average number of large shells per batch     ...    10.10 (73.45%)
Average number of large basis fcns per batch ...    28.00 (72.26%)
Maximum spatial batch extension              ...  20.08, 17.16, 22.17 au
Average spatial batch extension              ...   0.56,  0.48,  0.54 au

Time for grid setup =    0.276 sec

------------------------------
INITIAL GUESS: MODEL POTENTIAL
------------------------------
Loading Hartree-Fock densities                     ... done
Calculating cut-offs                               ... done
Setting up the integral package                    ... done
Initializing the effective Hamiltonian             ... done
Starting the Coulomb interaction                   ... done (   0.0 sec)
Reading the grid                                   ... done
Mapping shells                                     ... done
Starting the XC term evaluation                    ... done (   0.0 sec)
  promolecular density results
     # of electrons  =     87.000079694
     EX              =   -196.481117678
     EC              =     -4.058704489
     EX+EC           =   -200.539822167
Transforming the Hamiltonian                       ... done (   0.0 sec)
Diagonalizing the Hamiltonian                      ... done (   0.0 sec)
Back transforming the eigenvectors                 ... done (   0.0 sec)
Now organizing SCF variables                       ... done
                      ------------------
                      INITIAL GUESS DONE (   0.4 sec)
                      ------------------
--------------
SCF ITERATIONS
--------------
ITER       Energy         Delta-E        Max-DP      RMS-DP      [F,P]     Damp
               ***  Starting incremental Fock matrix formation  ***
  0  -4921.3871687543   0.000000000000 0.02464487  0.00079357  0.1304387 0.7000
  1  -4921.4147136961  -0.027544941834 0.02331386  0.00052637  0.0406205 0.7000
                               ***Turning on DIIS***
  2  -4921.4264520926  -0.011738396534 0.06048170  0.00119299  0.0199774 0.0000
  3  -4921.4530850790  -0.026632986394 0.00503727  0.00016934  0.0168086 0.0000
  4  -4921.4542367462  -0.001151667212 0.00575775  0.00011641  0.0072577 0.0000
  5  -4921.4544190967  -0.000182350418 0.00462561  0.00008162  0.0059212 0.0000
  6  -4921.4545811724  -0.000162075763 0.00383659  0.00006833  0.0016740 0.0000
  7  -4921.4546341228  -0.000052950338 0.00234640  0.00005529  0.0009906 0.0000
  8  -4921.4546548056  -0.000020682864 0.00040016  0.00000947  0.0002133 0.0000
  9  -4921.4546557099  -0.000000904306 0.00025301  0.00000470  0.0000706 0.0000
 10  -4921.4546558770  -0.000000167059 0.00011934  0.00000186  0.0000296 0.0000
 11  -4921.4546559030  -0.000000025974 0.00006685  0.00000101  0.0000142 0.0000
 12  -4921.4546559077  -0.000000004741 0.00002623  0.00000039  0.0000052 0.0000
 13  -4921.4546559080  -0.000000000291 0.00000912  0.00000016  0.0000083 0.0000
 14  -4921.4546559078   0.000000000176 0.00000440  0.00000008  0.0000045 0.0000
 15  -4921.4546559079  -0.000000000100 0.00000298  0.00000005  0.0000032 0.0000
                            ***DIIS convergence achieved***

               *****************************************************
               *                     SUCCESS                       *
               *           SCF CONVERGED AFTER  16 CYCLES          *
               *****************************************************


Setting up the DFT-NL grid :

General Integration Accuracy     IntAcc      ...  4.340
Radial Grid Type                 RadialGrid  ... Gauss-Chebyshev
Angular Grid (max. acc.)         AngularGrid ... Lebedev-110
Angular grid pruning method      GridPruning ... 3 (G Style)
Weight generation scheme         WeightScheme... Becke
Basis function cutoff            BFCut       ...    1.0000e-11
Integration weight cutoff        WCut        ...    1.0000e-14
Grids for H and He will be reduced by one unit

# of grid points (after initial pruning)     ...   8736 (   0.0 sec)
# of grid points (after weights+screening)   ...   8688 (   0.0 sec)
nearest neighbour list constructed           ...    0.0 sec
Grid point re-assignment to atoms done       ...    0.0 sec
Grid point division into batches done        ...    0.0 sec
Reduced shell lists constructed in    0.0 sec

Total number of grid points                  ...     8688
Total number of batches                      ...      137
Average number of points per batch           ...       63
Average number of grid points per atom       ...     2896
Average number of shells per batch           ...    16.71 (29.32%)
Average number of basis functions per batch  ...    49.29 (24.52%)
Average number of large shells per batch     ...    13.71 (82.05%)
Average number of large basis fcns per batch ...    38.00 (77.10%)
Maximum spatial batch extension              ...  32.26, 15.58, 17.81 au
Average spatial batch extension              ...   1.02,  0.65,  0.70 au

Final grid set up in    0.0 sec

-------------------------------------------------------------------------------
                         DFT-NL dispersion correction                          
-------------------------------------------------------------------------------

SC Energy -4921.454655909 
NL    Energy 0.362412718 
SC+NL Energy -4921.092243191 
NL done in    0.0 sec
-------------------------------------------------------------------------------

----------------
TOTAL SCF ENERGY
----------------

Total Energy       :        -4921.09224319 Eh         -133909.72778 eV

Components:
Nuclear Repulsion  :          571.29693808 Eh           15545.78002 eV
Electronic Energy  :        -5492.38918127 Eh         -149455.50779 eV
One Electron Energy:        -7987.29452624 Eh         -217345.33368 eV
Two Electron Energy:         2494.90534496 Eh           67889.82589 eV

Virial components:
Potential Energy   :        -9835.68588477 Eh         -267642.61961 eV
Kinetic Energy     :         4914.59364158 Eh          133732.89184 eV
Virial Ratio       :            2.00132231


DFT components:
N(Alpha)           :       42.999999686972 electrons
N(Beta)            :       42.999999686972 electrons
N(Total)           :       85.999999373945 electrons
E(X)               :     -155.296082086570 Eh       
E(C)               :       -4.800494833351 Eh       
NL Energy, E(C,NL) :        0.362412717884 Eh       
E(XC)              :     -159.734164202037 Eh       
DFET-embed. en.    :        0.000000000000 Eh       

---------------
SCF CONVERGENCE
---------------

  Last Energy change         ...   -1.2815e-09  Tolerance :   1.0000e-08
  Last MAX-Density change    ...    1.2906e-06  Tolerance :   1.0000e-07
  Last RMS-Density change    ...    2.8238e-08  Tolerance :   5.0000e-09
  Last DIIS Error            ...    4.1650e-07  Tolerance :   5.0000e-07

             **** THE GBW FILE WAS UPDATED (Cu03C1_D3H.gbw) ****
             **** DENSITY FILE WAS UPDATED (Cu03C1_D3H.scfp) ****
             **** ENERGY FILE WAS UPDATED (Cu03C1_D3H.en.tmp) ****
             **** THE GBW FILE WAS UPDATED (Cu03C1_D3H.gbw) ****
             **** DENSITY FILE WAS UPDATED (Cu03C1_D3H.scfp) ****
----------------
ORBITAL ENERGIES
----------------

  NO   OCC          E(Eh)            E(eV) 
   0   2.0000    -323.745758     -8809.5699 
   1   2.0000    -323.745754     -8809.5698 
   2   2.0000    -323.745746     -8809.5696 
   3   2.0000     -39.256301     -1068.2183 
   4   2.0000     -39.256297     -1068.2182 
   5   2.0000     -39.256264     -1068.2172 
   6   2.0000     -34.358090      -934.9312 
   7   2.0000     -34.358075      -934.9307 
   8   2.0000     -34.358071      -934.9306 
   9   2.0000     -34.357345      -934.9109 
  10   2.0000     -34.357340      -934.9108 
  11   2.0000     -34.357329      -934.9105 
  12   2.0000     -34.356661      -934.8923 
  13   2.0000     -34.356658      -934.8922 
  14   2.0000     -34.356650      -934.8920 
  15   2.0000      -4.646884      -126.4481 
  16   2.0000      -4.646404      -126.4351 
  17   2.0000      -4.646399      -126.4349 
  18   2.0000      -3.114835       -84.7590 
  19   2.0000      -3.112806       -84.7038 
  20   2.0000      -3.112806       -84.7037 
  21   2.0000      -3.110576       -84.6431 
  22   2.0000      -3.110350       -84.6369 
  23   2.0000      -3.110345       -84.6368 
  24   2.0000      -3.108482       -84.5861 
  25   2.0000      -3.108143       -84.5769 
  26   2.0000      -3.108136       -84.5767 
  27   2.0000      -0.627666       -17.0797 
  28   2.0000      -0.607856       -16.5406 
  29   2.0000      -0.607846       -16.5403 
  30   2.0000      -0.606874       -16.5139 
  31   2.0000      -0.593915       -16.1612 
  32   2.0000      -0.589823       -16.0499 
  33   2.0000      -0.589799       -16.0492 
  34   2.0000      -0.571084       -15.5400 
  35   2.0000      -0.571081       -15.5399 
  36   2.0000      -0.567893       -15.4532 
  37   2.0000      -0.566107       -15.4046 
  38   2.0000      -0.566060       -15.4033 
  39   2.0000      -0.564686       -15.3659 
  40   2.0000      -0.564641       -15.3647 
  41   2.0000      -0.547534       -14.8992 
  42   2.0000      -0.522566       -14.2197 
  43   0.0000      -0.205161        -5.5827 
  44   0.0000      -0.205158        -5.5826 
  45   0.0000      -0.155705        -4.2370 
  46   0.0000      -0.126192        -3.4339 
  47   0.0000      -0.102483        -2.7887 
  48   0.0000      -0.102483        -2.7887 
  49   0.0000      -0.071193        -1.9373 
  50   0.0000      -0.071193        -1.9373 
  51   0.0000      -0.053858        -1.4656 
  52   0.0000      -0.053857        -1.4655 
  53   0.0000      -0.023752        -0.6463 
  54   0.0000      -0.006180        -0.1682 
  55   0.0000      -0.005740        -0.1562 
  56   0.0000       0.010348         0.2816 
  57   0.0000       0.021956         0.5974 
  58   0.0000       0.021956         0.5975 
  59   0.0000       0.062534         1.7016 
  60   0.0000       0.062535         1.7017 
  61   0.0000       0.073963         2.0126 
  62   0.0000       0.082697         2.2503 
  63   0.0000       0.082699         2.2503 
  64   0.0000       0.095273         2.5925 
  65   0.0000       0.095274         2.5926 
  66   0.0000       0.109183         2.9710 
  67   0.0000       0.112764         3.0685 
  68   0.0000       0.112767         3.0685 
  69   0.0000       0.120812         3.2875 
  70   0.0000       0.166991         4.5441 
  71   0.0000       0.166992         4.5441 
  72   0.0000       0.186848         5.0844 
  73   0.0000       0.206839         5.6284 
  74   0.0000       0.221930         6.0390 
  75   0.0000       0.221932         6.0391 
  76   0.0000       0.224474         6.1083 
  77   0.0000       0.224475         6.1083 
  78   0.0000       0.331159         9.0113 
  79   0.0000       0.375917        10.2292 
  80   0.0000       0.375918        10.2292 
  81   0.0000       0.515243        14.0205 
  82   0.0000       0.523739        14.2517 
  83   0.0000       0.568546        15.4709 
  84   0.0000       0.568551        15.4710 
  85   0.0000       0.621837        16.9211 
  86   0.0000       0.621838        16.9211 
  87   0.0000       0.677091        18.4246 
  88   0.0000       0.680680        18.5222 
  89   0.0000       0.680684        18.5223 
  90   0.0000       0.704656        19.1747 
  91   0.0000       0.735692        20.0192 
  92   0.0000       0.735700        20.0194 
  93   0.0000       0.799176        21.7467 
  94   0.0000       0.818348        22.2684 
  95   0.0000       0.840283        22.8653 
  96   0.0000       0.840285        22.8653 
  97   0.0000       0.917584        24.9687 
  98   0.0000       0.935783        25.4640 
  99   0.0000       0.935793        25.4642 
 100   0.0000       0.979420        26.6514 
 101   0.0000       0.979428        26.6516 
 102   0.0000       1.156045        31.4576 
 103   0.0000       1.156054        31.4578 
 104   0.0000       1.172637        31.9091 
 105   0.0000       2.886648        78.5497 
 106   0.0000       2.943207        80.0887 
 107   0.0000       2.963986        80.6542 
 108   0.0000       2.964003        80.6546 
 109   0.0000       2.992612        81.4331 
 110   0.0000       2.992625        81.4335 
 111   0.0000       3.014757        82.0357 
 112   0.0000       3.014764        82.0359 
 113   0.0000       3.025572        82.3300 
 114   0.0000       3.133388        85.2638 
 115   0.0000       3.302974        89.8785 
 116   0.0000       3.326628        90.5222 
 117   0.0000       3.326636        90.5224 
 118   0.0000       3.330831        90.6365 
 119   0.0000       3.332019        90.6688 
 120   0.0000       3.332043        90.6695 
 121   0.0000       3.349944        91.1566 
 122   0.0000       3.349974        91.1574 
 123   0.0000       3.353900        91.2643 
 124   0.0000       3.356156        91.3256 
 125   0.0000       3.356181        91.3263 
 126   0.0000       3.358578        91.3915 
 127   0.0000       3.361773        91.4785 
 128   0.0000       3.361789        91.4789 
 129   0.0000       3.363879        91.5358 
 130   0.0000       3.366580        91.6093 
 131   0.0000       3.366581        91.6093 
 132   0.0000       3.368613        91.6646 
 133   0.0000       3.368632        91.6651 
 134   0.0000       3.392419        92.3124 
 135   0.0000       3.458386        94.1075 
 136   0.0000       3.518417        95.7410 
 137   0.0000       3.518434        95.7415 
 138   0.0000       3.619450        98.4902 
 139   0.0000       3.619546        98.4928 
 140   0.0000       3.619587        98.4940 
 141   0.0000       3.654759        99.4510 
 142   0.0000       3.670365        99.8757 
 143   0.0000       3.670372        99.8759 
 144   0.0000       3.689834       100.4055 
 145   0.0000       3.739285       101.7511 
 146   0.0000       3.739287       101.7512 
 147   0.0000       3.876904       105.4959 
 148   0.0000       3.876929       105.4966 
 149   0.0000       3.905843       106.2834 
 150   0.0000       3.915767       106.5534 
 151   0.0000       4.155861       113.0867 
 152   0.0000       4.155917       113.0883 
 153   0.0000      12.952582       352.4577 
 154   0.0000      12.953190       352.4742 
 155   0.0000      12.953249       352.4758 
 156   0.0000      12.953426       352.4806 
 157   0.0000      12.954387       352.5068 
 158   0.0000      12.954478       352.5093 
 159   0.0000      12.954484       352.5094 
 160   0.0000      12.954551       352.5112 
 161   0.0000      12.954581       352.5121 
 162   0.0000      12.955275       352.5310 
 163   0.0000      12.955584       352.5394 
 164   0.0000      12.955646       352.5411 
 165   0.0000      12.956383       352.5611 
 166   0.0000      12.956621       352.5676 
 167   0.0000      12.956748       352.5710 
 168   0.0000      12.957067       352.5797 
 169   0.0000      12.957076       352.5800 
 170   0.0000      12.957214       352.5837 
 171   0.0000      12.957231       352.5842 
 172   0.0000      12.957448       352.5901 
 173   0.0000      12.957501       352.5915 
 174   0.0000      12.957925       352.6031 
 175   0.0000      12.957970       352.6043 
 176   0.0000      12.958026       352.6058 
 177   0.0000      12.958031       352.6060 
 178   0.0000      12.958330       352.6141 
 179   0.0000      12.958391       352.6157 
 180   0.0000      13.132427       357.3515 
 181   0.0000      13.132506       357.3537 
 182   0.0000      13.132810       357.3619 
 183   0.0000      13.132968       357.3662 
 184   0.0000      13.132972       357.3663 
 185   0.0000      13.133943       357.3928 
 186   0.0000      13.135346       357.4309 
 187   0.0000      13.135357       357.4312 
 188   0.0000      13.136250       357.4555 
 189   0.0000      13.136924       357.4739 
 190   0.0000      13.136956       357.4748 
 191   0.0000      13.138543       357.5179 
 192   0.0000      13.143629       357.6563 
 193   0.0000      13.146672       357.7391 
 194   0.0000      13.148664       357.7933 
 195   0.0000      13.148667       357.7934 
 196   0.0000      13.152449       357.8963 
 197   0.0000      13.152458       357.8966 
 198   0.0000      13.228379       359.9625 
 199   0.0000      13.232876       360.0849 
 200   0.0000      13.232903       360.0856 

                    ********************************
                    * MULLIKEN POPULATION ANALYSIS *
                    ********************************

-----------------------
MULLIKEN ATOMIC CHARGES
-----------------------
   0 Cu:    0.333340
   1 Cu:    0.333331
   2 Cu:    0.333328
Sum of atomic charges:    1.0000000

--------------------------------
MULLIKEN REDUCED ORBITAL CHARGES
--------------------------------
  0 Cus       :     6.633837  s :     6.633837
      pz      :     4.010425  p :    12.106347
      px      :     4.010700
      py      :     4.085221
      dz2     :     1.992712  d :     9.926243
      dxz     :     1.997300
      dyz     :     1.992192
      dx2y2   :     1.984190
      dxy     :     1.959848
      f0      :     0.000024  f :     0.000232
      f+1     :     0.000010
      f-1     :     0.000039
      f+2     :     0.000023
      f-2     :     0.000033
      f+3     :     0.000046
      f-3     :     0.000057
      g0      :     0.000000  g :     0.000001
      g+1     :     0.000000
      g-1     :     0.000000
      g+2     :     0.000000
      g-2     :     0.000000
      g+3     :     0.000000
      g-3     :     0.000000
      g+4     :     0.000000
      g-4     :     0.000000
  1 Cus       :     6.633846  s :     6.633846
      pz      :     4.010425  p :    12.106339
      px      :     4.066584
      py      :     4.029330
      dz2     :     1.992705  d :     9.926252
      dxz     :     1.993473
      dyz     :     1.996023
      dx2y2   :     1.965954
      dxy     :     1.978096
      f0      :     0.000024  f :     0.000232
      f+1     :     0.000032
      f-1     :     0.000017
      f+2     :     0.000030
      f-2     :     0.000025
      f+3     :     0.000046
      f-3     :     0.000057
      g0      :     0.000000  g :     0.000001
      g+1     :     0.000000
      g-1     :     0.000000
      g+2     :     0.000000
      g-2     :     0.000000
      g+3     :     0.000000
      g-3     :     0.000000
      g+4     :     0.000000
      g-4     :     0.000000
  2 Cus       :     6.633848  s :     6.633848
      pz      :     4.010425  p :    12.106339
      px      :     4.066584
      py      :     4.029330
      dz2     :     1.992705  d :     9.926252
      dxz     :     1.993473
      dyz     :     1.996023
      dx2y2   :     1.965954
      dxy     :     1.978096
      f0      :     0.000024  f :     0.000232
      f+1     :     0.000032
      f-1     :     0.000017
      f+2     :     0.000030
      f-2     :     0.000025
      f+3     :     0.000046
      f-3     :     0.000057
      g0      :     0.000000  g :     0.000001
      g+1     :     0.000000
      g-1     :     0.000000
      g+2     :     0.000000
      g-2     :     0.000000
      g+3     :     0.000000
      g-3     :     0.000000
      g+4     :     0.000000
      g-4     :     0.000000


                     *******************************
                     * LOEWDIN POPULATION ANALYSIS *
                     *******************************

----------------------
LOEWDIN ATOMIC CHARGES
----------------------
   0 Cu:    0.333343
   1 Cu:    0.333329
   2 Cu:    0.333329

-------------------------------
LOEWDIN REDUCED ORBITAL CHARGES
-------------------------------
  0 Cus       :     6.450917  s :     6.450917
      pz      :     4.011636  p :    12.229269
      px      :     4.027137
      py      :     4.190496
      dz2     :     2.013478  d :     9.985897
      dxz     :     1.997191
      dyz     :     1.991013
      dx2y2   :     1.998251
      dxy     :     1.985964
      f0      :     0.000052  f :     0.000573
      f+1     :     0.000033
      f-1     :     0.000086
      f+2     :     0.000036
      f-2     :     0.000070
      f+3     :     0.000174
      f-3     :     0.000122
      g0      :     0.000000  g :     0.000002
      g+1     :     0.000000
      g-1     :     0.000000
      g+2     :     0.000000
      g-2     :     0.000000
      g+3     :     0.000000
      g-3     :     0.000000
      g+4     :     0.000000
      g-4     :     0.000000
  1 Cus       :     6.450917  s :     6.450917
      pz      :     4.011635  p :    12.229272
      px      :     4.149654
      py      :     4.067983
      dz2     :     2.013472  d :     9.985908
      dxz     :     1.992563
      dyz     :     1.995643
      dx2y2   :     1.989058
      dxy     :     1.995171
      f0      :     0.000052  f :     0.000573
      f+1     :     0.000073
      f-1     :     0.000046
      f+2     :     0.000062
      f-2     :     0.000045
      f+3     :     0.000174
      f-3     :     0.000122
      g0      :     0.000000  g :     0.000002
      g+1     :     0.000000
      g-1     :     0.000000
      g+2     :     0.000000
      g-2     :     0.000000
      g+3     :     0.000000
      g-3     :     0.000000
      g+4     :     0.000000
      g-4     :     0.000000
  2 Cus       :     6.450917  s :     6.450917
      pz      :     4.011635  p :    12.229272
      px      :     4.149654
      py      :     4.067983
      dz2     :     2.013472  d :     9.985908
      dxz     :     1.992563
      dyz     :     1.995643
      dx2y2   :     1.989058
      dxy     :     1.995171
      f0      :     0.000052  f :     0.000573
      f+1     :     0.000073
      f-1     :     0.000046
      f+2     :     0.000062
      f-2     :     0.000045
      f+3     :     0.000174
      f-3     :     0.000122
      g0      :     0.000000  g :     0.000002
      g+1     :     0.000000
      g-1     :     0.000000
      g+2     :     0.000000
      g-2     :     0.000000
      g+3     :     0.000000
      g-3     :     0.000000
      g+4     :     0.000000
      g-4     :     0.000000


                      *****************************
                      * MAYER POPULATION ANALYSIS *
                      *****************************

  NA   - Mulliken gross atomic population
  ZA   - Total nuclear charge
  QA   - Mulliken gross atomic charge
  VA   - Mayer's total valence
  BVA  - Mayer's bonded valence
  FA   - Mayer's free valence

  ATOM       NA         ZA         QA         VA         BVA        FA
  0 Cu    28.6667    29.0000     0.3333     1.0483     1.0483    -0.0000
  1 Cu    28.6667    29.0000     0.3333     1.0483     1.0483    -0.0000
  2 Cu    28.6667    29.0000     0.3333     1.0483     1.0483    -0.0000

  Mayer bond orders larger than 0.100000
B(  0-Cu,  1-Cu) :   0.5241 B(  0-Cu,  2-Cu) :   0.5241 B(  1-Cu,  2-Cu) :   0.5241 


-------
TIMINGS
-------

Total SCF time: 0 days 0 hours 0 min 14 sec 

Total time                  ....      14.732 sec
Sum of individual times     ....      14.477 sec  ( 98.3%)

Fock matrix formation       ....      13.910 sec  ( 94.4%)
  XC integration            ....       0.814 sec  (  5.9% of F)
    Basis function eval.    ....       0.065 sec  (  8.0% of XC)
    Density eval.           ....       0.106 sec  ( 13.0% of XC)
    XC-Functional eval.     ....       0.034 sec  (  4.2% of XC)
    XC-Potential eval.      ....       0.205 sec  ( 25.2% of XC)
Diagonalization             ....       0.099 sec  (  0.7%)
Density matrix formation    ....       0.012 sec  (  0.1%)
Population analysis         ....       0.006 sec  (  0.0%)
Initial guess               ....       0.102 sec  (  0.7%)
Orbital Transformation      ....       0.000 sec  (  0.0%)
Orbital Orthonormalization  ....       0.000 sec  (  0.0%)
DIIS solution               ....       0.046 sec  (  0.3%)
Grid generation             ....       0.301 sec  (  2.0%)

-------------------------   --------------------
FINAL SINGLE POINT ENERGY     -4921.092243191326
-------------------------   --------------------


----------------------------------------------------------------------------
                           ORCA NUMERICAL GRADIENT
                              (24-process run)
----------------------------------------------------------------------------

I state                        ... 1
J state                        ... 0
Number of atoms                ... 3
Derivative's order of accuracy ... 2
Central differences            ... used
Number of displacements        ... 18
Numerical increment            ... 5.000e-03 bohr
Translation invariance         ... used

The output will be reduced. Please look at the following files:
SCF program output             ... >Cu03C1_D3H.lastscf
Integral program output        ... >Cu03C1_D3H.lastint
Gradient program output        ... >Cu03C1_D3H.lastgrad


     Note:   There are more processes than displacements to do
     ===>:   Reducing number of processes to   6

             <<<Displacing   3/coordinate 3 (+)>>>
             <<<Displacing   3/coordinate 1 (+)>>>
             <<<Displacing   2/coordinate 1 (+)>>>
             <<<Displacing   2/coordinate 3 (+)>>>
             <<<Displacing   2/coordinate 2 (+)>>>
             <<<Displacing   3/coordinate 2 (+)>>>
             <<<Displacing   2/coordinate 3 (-)>>>
             <<<Displacing   3/coordinate 3 (-)>>>
             <<<Displacing   2/coordinate 2 (-)>>>
             <<<Displacing   3/coordinate 2 (-)>>>
             <<<Displacing   2/coordinate 1 (-)>>>
             <<<Displacing   3/coordinate 1 (-)>>>

------------------------------
CARTESIAN GRADIENT (NUMERICAL)
-------------------------------
   1   Cu  :   -0.000000656   -0.011024417   -0.000000595
   2   Cu  :   -0.009496558    0.005512292    0.000000833
   3   Cu  :    0.009497213    0.005512125   -0.000000238

Norm of the cartesian gradient     ...    0.019044378
RMS gradient                       ...    0.006348126
MAX gradient                       ...    0.011024417

-------
TIMINGS
-------

Total numerical gradient time      ...      276.256 sec

------------------------------------------------------------------------------
                         ORCA GEOMETRY RELAXATION STEP
------------------------------------------------------------------------------

Reading the OPT-File                    .... done
Getting information on internals        .... done
Copying old internal coords+grads       .... done
Making the new internal coordinates     .... (new redundants).... done
Validating the new internal coordinates .... (new redundants).... done
Calculating the B-matrix                .... done
Calculating the G,G- and P matrices     .... done
Transforming gradient to internals      .... done
Projecting the internal gradient        .... done
Number of atoms                         ....   3
Number of internal coordinates          ....   6
Current Energy                          .... -4921.092243191 Eh
Current gradient norm                   ....     0.019044378 Eh/bohr
Maximum allowed component of the step   ....  0.300
Current trust radius                    ....  0.300
Evaluating the initial hessian          ....  (Almloef) done
Projecting the Hessian                  .... done
Forming the augmented Hessian           .... done
Diagonalizing the augmented Hessian     .... done
Last element of RFO vector              ....  0.999984473
Lowest eigenvalues of augmented Hessian:
 -0.000061273  1.850211544  1.850211632  1.973070899 1000.000000000
Length of the computed step             ....  0.005572691
The final length of the internal step   ....  0.005572691
Converting the step to cartesian space:
 Initial RMS(Int)=    0.0022750415
Transforming coordinates:
 Iter   0:  RMS(Cart)=    0.0010724703 RMS(Int)=    0.0022750415
 Iter   1:  RMS(Cart)=    0.0000000005 RMS(Int)=    0.0000000008
done
Storing new coordinates                 .... done

                                .--------------------.
          ----------------------|Geometry convergence|-------------------------
          Item                value                   Tolerance       Converged
          ---------------------------------------------------------------------
          RMS gradient        0.0044888144            0.0001000000      NO
          MAX gradient        0.0063629465            0.0003000000      NO
          RMS step            0.0022750415            0.0020000000      NO
          MAX step            0.0032253943            0.0040000000      YES
          ........................................................
          Max(Bonds)      0.0017      Max(Angles)    0.00
          Max(Dihed)        0.00      Max(Improp)    0.00
          ---------------------------------------------------------------------

The optimization has not yet converged - more geometry cycles are needed


    ---------------------------------------------------------------------------
                         Redundant Internal Coordinates
                            (Angstroem and degrees)

        Definition                    Value    dE/dq     Step     New-Value
    ----------------------------------------------------------------------------
     1. B(Cu  1,Cu  0)                2.3370 -0.006362  0.0017    2.3387   
     2. B(Cu  2,Cu  1)                2.3370 -0.006319  0.0017    2.3387   
     3. B(Cu  2,Cu  0)                2.3370 -0.006363  0.0017    2.3387   
     4. A(Cu  1,Cu  0,Cu  2)           60.00  0.000011   -0.00     60.00   
     5. A(Cu  0,Cu  1,Cu  2)           60.00 -0.000006    0.00     60.00   
     6. A(Cu  0,Cu  2,Cu  1)           60.00 -0.000006    0.00     60.00   
    ----------------------------------------------------------------------------

         *************************************************************
         *                GEOMETRY OPTIMIZATION CYCLE   2            *
         *************************************************************
---------------------------------
CARTESIAN COORDINATES (ANGSTROEM)
---------------------------------
  Cu     0.000000    1.350249    0.000000
  Cu     1.169341   -0.675124    0.000000
  Cu    -1.169341   -0.675124    0.000000

----------------------------
CARTESIAN COORDINATES (A.U.)
----------------------------
  NO LB      ZA    FRAG     MASS         X           Y           Z
   0 Cu   29.0000    0    63.550    0.000000    2.551600    0.000000
   1 Cu   29.0000    0    63.550    2.209734   -1.275799    0.000000
   2 Cu   29.0000    0    63.550   -2.209734   -1.275799    0.000000

--------------------------------
INTERNAL COORDINATES (ANGSTROEM)
--------------------------------
 Cu     0   0   0     0.000000000000     0.00000000     0.00000000
 Cu     1   0   0     2.338694687426     0.00000000     0.00000000
 Cu     2   1   0     2.338682207619    60.00018044     0.00000000

---------------------------
INTERNAL COORDINATES (A.U.)
---------------------------
 Cu     0   0   0     0.000000000000     0.00000000     0.00000000
 Cu     1   0   0     4.419492470091     0.00000000     0.00000000
 Cu     2   1   0     4.419468886674    60.00018044     0.00000000



           ************************************************************
           *        Program running with 24 parallel MPI-processes    *
           *              working on a common directory               *
           ************************************************************


           ************************************************************
           *        Program running with 24 parallel MPI-processes    *
           *              working on a common directory               *
           ************************************************************

Diagonalization of the overlap matrix:
Smallest eigenvalue                        ... 7.695e-04
Time for diagonalization                   ...    0.009 sec
Threshold for overlap eigenvalues          ... 1.000e-08
Number of eigenvalues below threshold      ... 0
Time for construction of square roots      ...    0.006 sec
Total time needed                          ...    0.015 sec

-------------------
DFT GRID GENERATION
-------------------

General Integration Accuracy     IntAcc      ...  4.670
Radial Grid Type                 RadialGrid  ... Gauss-Chebyshev
Angular Grid (max. acc.)         AngularGrid ... Lebedev-302
Angular grid pruning method      GridPruning ... 3 (G Style)
Weight generation scheme         WeightScheme... Becke
Basis function cutoff            BFCut       ...    1.0000e-11
Integration weight cutoff        WCut        ...    1.0000e-14
Grids for H and He will be reduced by one unit

# of grid points (after initial pruning)     ...  28668 (   0.0 sec)
# of grid points (after weights+screening)   ...  28566 (   0.0 sec)
nearest neighbour list constructed           ...    0.0 sec
Grid point re-assignment to atoms done       ...    0.0 sec
Grid point division into batches done        ...    0.2 sec
Reduced shell lists constructed in    0.2 sec

Total number of grid points                  ...    28566
Total number of batches                      ...      448
Average number of points per batch           ...       63
Average number of grid points per atom       ...     9522
Average number of shells per batch           ...    13.75 (24.12%)
Average number of basis functions per batch  ...    38.75 (19.28%)
Average number of large shells per batch     ...    10.10 (73.45%)
Average number of large basis fcns per batch ...    27.90 (72.00%)
Maximum spatial batch extension              ...  20.09, 17.16, 22.17 au
Average spatial batch extension              ...   0.56,  0.48,  0.54 au

Time for grid setup =    0.260 sec

--------------
SCF ITERATIONS
--------------
ITER       Energy         Delta-E        Max-DP      RMS-DP      [F,P]     Damp
               ***  Starting incremental Fock matrix formation  ***
  0  -4921.4547278447   0.000000000000 0.00005915  0.00000147  0.0007022 0.7000
  1  -4921.4547279092  -0.000000064486 0.00005530  0.00000128  0.0004919 0.7000
                               ***Turning on DIIS***
  2  -4921.4547279502  -0.000000040961 0.00014968  0.00000337  0.0003445 0.0000
  3  -4921.4547280542  -0.000000104079 0.00002966  0.00000065  0.0000243 0.0000
  4  -4921.4547280591  -0.000000004869 0.00001420  0.00000030  0.0000098 0.0000
  5  -4921.4547280591   0.000000000018 0.00000944  0.00000020  0.0000055 0.0000
  6  -4921.4547280598  -0.000000000686 0.00000608  0.00000013  0.0000087 0.0000
                            ***DIIS convergence achieved***

               *****************************************************
               *                     SUCCESS                       *
               *           SCF CONVERGED AFTER   7 CYCLES          *
               *****************************************************


Setting up the DFT-NL grid :

General Integration Accuracy     IntAcc      ...  4.340
Radial Grid Type                 RadialGrid  ... Gauss-Chebyshev
Angular Grid (max. acc.)         AngularGrid ... Lebedev-110
Angular grid pruning method      GridPruning ... 3 (G Style)
Weight generation scheme         WeightScheme... Becke
Basis function cutoff            BFCut       ...    1.0000e-11
Integration weight cutoff        WCut        ...    1.0000e-14
Grids for H and He will be reduced by one unit

# of grid points (after initial pruning)     ...   8736 (   0.0 sec)
# of grid points (after weights+screening)   ...   8688 (   0.0 sec)
nearest neighbour list constructed           ...    0.0 sec
Grid point re-assignment to atoms done       ...    0.0 sec
Grid point division into batches done        ...    0.0 sec
Reduced shell lists constructed in    0.0 sec

Total number of grid points                  ...     8688
Total number of batches                      ...      138
Average number of points per batch           ...       62
Average number of grid points per atom       ...     2896
Average number of shells per batch           ...    17.14 (30.08%)
Average number of basis functions per batch  ...    50.57 (25.16%)
Average number of large shells per batch     ...    13.71 (80.00%)
Average number of large basis fcns per batch ...    38.00 (75.14%)
Maximum spatial batch extension              ...  32.26, 15.58, 17.81 au
Average spatial batch extension              ...   1.01,  0.65,  0.70 au

Final grid set up in    0.0 sec

-------------------------------------------------------------------------------
                         DFT-NL dispersion correction                          
-------------------------------------------------------------------------------

SC Energy -4921.454728059 
NL    Energy 0.362424517 
SC+NL Energy -4921.092303542 
NL done in    0.1 sec
-------------------------------------------------------------------------------
Total Energy       :        -4921.09230354 Eh         -133909.72942 eV
  Last Energy change         ...    7.4397e-10  Tolerance :   1.0000e-08
  Last MAX-Density change    ...    2.8064e-06  Tolerance :   1.0000e-07
             **** THE GBW FILE WAS UPDATED (Cu03C1_D3H.gbw) ****
             **** DENSITY FILE WAS UPDATED (Cu03C1_D3H.scfp) ****
             **** ENERGY FILE WAS UPDATED (Cu03C1_D3H.en.tmp) ****
             **** THE GBW FILE WAS UPDATED (Cu03C1_D3H.gbw) ****
             **** DENSITY FILE WAS UPDATED (Cu03C1_D3H.scfp) ****
Total SCF time: 0 days 0 hours 0 min 6 sec 

-------------------------   --------------------
FINAL SINGLE POINT ENERGY     -4921.092303542090
-------------------------   --------------------


----------------------------------------------------------------------------
                           ORCA NUMERICAL GRADIENT
                              (24-process run)
----------------------------------------------------------------------------

I state                        ... 1
J state                        ... 0
Number of atoms                ... 3
Derivative's order of accuracy ... 2
Central differences            ... used
Number of displacements        ... 18
Numerical increment            ... 5.000e-03 bohr
Translation invariance         ... used

The output will be reduced. Please look at the following files:
SCF program output             ... >Cu03C1_D3H.lastscf
Integral program output        ... >Cu03C1_D3H.lastint
Gradient program output        ... >Cu03C1_D3H.lastgrad


     Note:   There are more processes than displacements to do
     ===>:   Reducing number of processes to   6

             <<<Displacing   3/coordinate 2 (+)>>>
             <<<Displacing   3/coordinate 3 (+)>>>
             <<<Displacing   3/coordinate 1 (+)>>>
             <<<Displacing   2/coordinate 1 (+)>>>
             <<<Displacing   2/coordinate 2 (+)>>>
             <<<Displacing   2/coordinate 3 (+)>>>
             <<<Displacing   3/coordinate 3 (-)>>>
             <<<Displacing   2/coordinate 3 (-)>>>
             <<<Displacing   2/coordinate 2 (-)>>>
             <<<Displacing   3/coordinate 2 (-)>>>
             <<<Displacing   3/coordinate 1 (-)>>>
             <<<Displacing   2/coordinate 1 (-)>>>

------------------------------
CARTESIAN GRADIENT (NUMERICAL)
-------------------------------
   1   Cu  :   -0.000001097   -0.010694113   -0.000001249
   2   Cu  :   -0.009204946    0.005347174    0.000001546
   3   Cu  :    0.009206043    0.005346939   -0.000000297

Norm of the cartesian gradient     ...    0.018466953
RMS gradient                       ...    0.006155651
MAX gradient                       ...    0.010694113

-------
TIMINGS
-------

Total numerical gradient time      ...      275.617 sec

------------------------------------------------------------------------------
                         ORCA GEOMETRY RELAXATION STEP
------------------------------------------------------------------------------

Reading the OPT-File                    .... done
Getting information on internals        .... done
Copying old internal coords+grads       .... done
Making the new internal coordinates     .... (new redundants).... done
Validating the new internal coordinates .... (new redundants).... done
Calculating the B-matrix                .... done
Calculating the G,G- and P matrices     .... done
Transforming gradient to internals      .... done
Projecting the internal gradient        .... done
Number of atoms                         ....   3
Number of internal coordinates          ....   6
Current Energy                          .... -4921.092303542 Eh
Current gradient norm                   ....     0.018466953 Eh/bohr
Maximum allowed component of the step   ....  0.300
Current trust radius                    ....  0.300
Updating the Hessian (BFGS)             .... done
Forming the augmented Hessian           .... done
Diagonalizing the augmented Hessian     .... done
Last element of RFO vector              ....  0.985379589
Lowest eigenvalues of augmented Hessian:
 -0.001843461  0.061664902  1.850211546  1.850228778 999.999999567
Length of the computed step             ....  0.172901197
The final length of the internal step   ....  0.172901197
Converting the step to cartesian space:
 Initial RMS(Int)=    0.0705866182
Transforming coordinates:
 Iter   0:  RMS(Cart)=    0.0332750708 RMS(Int)=    0.0705866267
 Iter   1:  RMS(Cart)=    0.0000005434 RMS(Int)=    0.0000008730
 Iter   2:  RMS(Cart)=    0.0000000016 RMS(Int)=    0.0000000025
done
Storing new coordinates                 .... done

                                .--------------------.
          ----------------------|Geometry convergence|-------------------------
          Item                value                   Tolerance       Converged
          ---------------------------------------------------------------------
          Energy change      -0.0000603508            0.0000050000      NO
          RMS gradient        0.0043527170            0.0001000000      NO
          MAX gradient        0.0061721775            0.0003000000      NO
          RMS step            0.0705866182            0.0020000000      NO
          MAX step            0.1001098899            0.0040000000      NO
          ........................................................
          Max(Bonds)      0.0530      Max(Angles)    0.01
          Max(Dihed)        0.00      Max(Improp)    0.00
          ---------------------------------------------------------------------

The optimization has not yet converged - more geometry cycles are needed


    ---------------------------------------------------------------------------
                         Redundant Internal Coordinates
                            (Angstroem and degrees)

        Definition                    Value    dE/dq     Step     New-Value
    ----------------------------------------------------------------------------
     1. B(Cu  1,Cu  0)                2.3387 -0.006171  0.0530    2.3917   
     2. B(Cu  2,Cu  1)                2.3387 -0.006123  0.0525    2.3912   
     3. B(Cu  2,Cu  0)                2.3387 -0.006172  0.0530    2.3917   
     4. A(Cu  1,Cu  0,Cu  2)           60.00  0.000013   -0.01     59.99   
     5. A(Cu  0,Cu  1,Cu  2)           60.00 -0.000006    0.01     60.01   
     6. A(Cu  0,Cu  2,Cu  1)           60.00 -0.000006    0.01     60.01   
    ----------------------------------------------------------------------------

         *************************************************************
         *                GEOMETRY OPTIMIZATION CYCLE   3            *
         *************************************************************


           ************************************************************
           *        Program running with 24 parallel MPI-processes    *
           *              working on a common directory               *
           ************************************************************


           ************************************************************
           *        Program running with 24 parallel MPI-processes    *
           *              working on a common directory               *
           ************************************************************

Diagonalization of the overlap matrix:
Smallest eigenvalue                        ... 8.285e-04
Time for diagonalization                   ...    0.008 sec
Threshold for overlap eigenvalues          ... 1.000e-08
Number of eigenvalues below threshold      ... 0
Time for construction of square roots      ...    0.006 sec
Total time needed                          ...    0.015 sec

-------------------
DFT GRID GENERATION
-------------------

General Integration Accuracy     IntAcc      ...  4.670
Radial Grid Type                 RadialGrid  ... Gauss-Chebyshev
Angular Grid (max. acc.)         AngularGrid ... Lebedev-302
Angular grid pruning method      GridPruning ... 3 (G Style)
Weight generation scheme         WeightScheme... Becke
Basis function cutoff            BFCut       ...    1.0000e-11
Integration weight cutoff        WCut        ...    1.0000e-14
Grids for H and He will be reduced by one unit

# of grid points (after initial pruning)     ...  28668 (   0.0 sec)
# of grid points (after weights+screening)   ...  28574 (   0.0 sec)
nearest neighbour list constructed           ...    0.0 sec
Grid point re-assignment to atoms done       ...    0.0 sec
Grid point division into batches done        ...    0.2 sec
Reduced shell lists constructed in    0.2 sec

Total number of grid points                  ...    28574
Total number of batches                      ...      448
Average number of points per batch           ...       63
Average number of grid points per atom       ...     9525
Average number of shells per batch           ...    13.70 (24.04%)
Average number of basis functions per batch  ...    38.60 (19.20%)
Average number of large shells per batch     ...    10.15 (74.09%)
Average number of large basis fcns per batch ...    28.15 (72.93%)
Maximum spatial batch extension              ...  20.19, 17.16, 22.17 au
Average spatial batch extension              ...   0.56,  0.48,  0.54 au

Time for grid setup =    0.256 sec

--------------
SCF ITERATIONS
--------------
ITER       Energy         Delta-E        Max-DP      RMS-DP      [F,P]     Damp
               ***  Starting incremental Fock matrix formation  ***
  0  -4921.4559119121   0.000000000000 0.00166579  0.00004219  0.0219871 0.7000
  1  -4921.4559710507  -0.000059138595 0.00157955  0.00003726  0.0154035 0.7000
                               ***Turning on DIIS***
  2  -4921.4560103492  -0.000039298568 0.00416564  0.00009569  0.0107860 0.0000
  3  -4921.4561058607  -0.000095511437 0.00118331  0.00002296  0.0007282 0.0000
  4  -4921.4561114213  -0.000005560602 0.00043652  0.00001027  0.0003550 0.0000
  5  -4921.4561124233  -0.000001002009 0.00025425  0.00000557  0.0004145 0.0000
  6  -4921.4561129637  -0.000000540389 0.00031246  0.00000640  0.0002194 0.0000
  7  -4921.4561133160  -0.000000352285 0.00008886  0.00000191  0.0000303 0.0000
  8  -4921.4561133425  -0.000000026590 0.00004540  0.00000081  0.0000102 0.0000
                 **** Energy Check signals convergence ****

               *****************************************************
               *                     SUCCESS                       *
               *           SCF CONVERGED AFTER   9 CYCLES          *
               *****************************************************


Setting up the DFT-NL grid :

General Integration Accuracy     IntAcc      ...  4.340
Radial Grid Type                 RadialGrid  ... Gauss-Chebyshev
Angular Grid (max. acc.)         AngularGrid ... Lebedev-110
Angular grid pruning method      GridPruning ... 3 (G Style)
Weight generation scheme         WeightScheme... Becke
Basis function cutoff            BFCut       ...    1.0000e-11
Integration weight cutoff        WCut        ...    1.0000e-14
Grids for H and He will be reduced by one unit

# of grid points (after initial pruning)     ...   8736 (   0.0 sec)
# of grid points (after weights+screening)   ...   8688 (   0.0 sec)
nearest neighbour list constructed           ...    0.0 sec
Grid point re-assignment to atoms done       ...    0.0 sec
Grid point division into batches done        ...    0.0 sec
Reduced shell lists constructed in    0.0 sec

Total number of grid points                  ...     8688
Total number of batches                      ...      138
Average number of points per batch           ...       62
Average number of grid points per atom       ...     2896
Average number of shells per batch           ...    17.14 (30.08%)
Average number of basis functions per batch  ...    50.57 (25.16%)
Average number of large shells per batch     ...    13.57 (79.17%)
Average number of large basis fcns per batch ...    37.86 (74.86%)
Maximum spatial batch extension              ...  32.36, 15.58, 17.81 au
Average spatial batch extension              ...   1.01,  0.63,  0.70 au

Final grid set up in    0.0 sec

-------------------------------------------------------------------------------
                         DFT-NL dispersion correction                          
-------------------------------------------------------------------------------

SC Energy -4921.456113348 
NL    Energy 0.362780929 
SC+NL Energy -4921.093332419 
NL done in    0.1 sec
-------------------------------------------------------------------------------
Total Energy       :        -4921.09333242 Eh         -133909.75742 eV
  Last Energy change         ...   -5.4379e-09  Tolerance :   1.0000e-08
  Last MAX-Density change    ...    2.4130e-05  Tolerance :   1.0000e-07
             **** THE GBW FILE WAS UPDATED (Cu03C1_D3H.gbw) ****
             **** DENSITY FILE WAS UPDATED (Cu03C1_D3H.scfp) ****
             **** ENERGY FILE WAS UPDATED (Cu03C1_D3H.en.tmp) ****
             **** THE GBW FILE WAS UPDATED (Cu03C1_D3H.gbw) ****
             **** DENSITY FILE WAS UPDATED (Cu03C1_D3H.scfp) ****
Total SCF time: 0 days 0 hours 0 min 8 sec 

-------------------------   --------------------
FINAL SINGLE POINT ENERGY     -4921.093332418729
-------------------------   --------------------


----------------------------------------------------------------------------
                           ORCA NUMERICAL GRADIENT
                              (24-process run)
----------------------------------------------------------------------------

I state                        ... 1
J state                        ... 0
Number of atoms                ... 3
Derivative's order of accuracy ... 2
Central differences            ... used
Number of displacements        ... 18
Numerical increment            ... 5.000e-03 bohr
Translation invariance         ... used

The output will be reduced. Please look at the following files:
SCF program output             ... >Cu03C1_D3H.lastscf
Integral program output        ... >Cu03C1_D3H.lastint
Gradient program output        ... >Cu03C1_D3H.lastgrad


     Note:   There are more processes than displacements to do
     ===>:   Reducing number of processes to   6

             <<<Displacing   3/coordinate 3 (+)>>>
             <<<Displacing   2/coordinate 1 (+)>>>
             <<<Displacing   2/coordinate 3 (+)>>>
             <<<Displacing   2/coordinate 2 (+)>>>
             <<<Displacing   3/coordinate 2 (+)>>>
             <<<Displacing   3/coordinate 1 (+)>>>
             <<<Displacing   2/coordinate 3 (-)>>>
             <<<Displacing   3/coordinate 3 (-)>>>
             <<<Displacing   3/coordinate 2 (-)>>>
             <<<Displacing   2/coordinate 2 (-)>>>
             <<<Displacing   2/coordinate 1 (-)>>>
             <<<Displacing   3/coordinate 1 (-)>>>

------------------------------
CARTESIAN GRADIENT (NUMERICAL)
-------------------------------
   1   Cu  :   -0.000001296   -0.001750644    0.000000265
   2   Cu  :   -0.001323315    0.000875586    0.000000049
   3   Cu  :    0.001324611    0.000875059   -0.000000314

Norm of the cartesian gradient     ...    0.002846558
RMS gradient                       ...    0.000948853
MAX gradient                       ...    0.001750644

-------
TIMINGS
-------

Total numerical gradient time      ...      268.408 sec

------------------------------------------------------------------------------
                         ORCA GEOMETRY RELAXATION STEP
------------------------------------------------------------------------------

Reading the OPT-File                    .... done
Getting information on internals        .... done
Copying old internal coords+grads       .... done
Making the new internal coordinates     .... (new redundants).... done
Validating the new internal coordinates .... (new redundants).... done
Calculating the B-matrix                .... done
Calculating the G,G- and P matrices     .... done
Transforming gradient to internals      .... done
Projecting the internal gradient        .... done
Number of atoms                         ....   3
Number of internal coordinates          ....   6
Current Energy                          .... -4921.093332419 Eh
Current gradient norm                   ....     0.002846558 Eh/bohr
Maximum allowed component of the step   ....  0.300
Current trust radius                    ....  0.300
Updating the Hessian (BFGS)             .... done
Forming the augmented Hessian           .... done
Diagonalizing the augmented Hessian     .... done
Last element of RFO vector              ....  0.999507145
Lowest eigenvalues of augmented Hessian:
 -0.000051531  0.052229003  1.850211561  1.850242108 999.981660173
Length of the computed step             ....  0.031407627
The final length of the internal step   ....  0.031407627
Converting the step to cartesian space:
 Initial RMS(Int)=    0.0128221100
Transforming coordinates:
 Iter   0:  RMS(Cart)=    0.0060445109 RMS(Int)=    0.0128221108
 Iter   1:  RMS(Cart)=    0.0000000283 RMS(Int)=    0.0000000454
done
Storing new coordinates                 .... done

                                .--------------------.
          ----------------------|Geometry convergence|-------------------------
          Item                value                   Tolerance       Converged
          ---------------------------------------------------------------------
          Energy change      -0.0010288766            0.0000050000      NO
          RMS gradient        0.0006720716            0.0001000000      NO
          MAX gradient        0.0010029187            0.0003000000      NO
          RMS step            0.0128221100            0.0020000000      NO
          MAX step            0.0182190684            0.0040000000      NO
          ........................................................
          Max(Bonds)      0.0096      Max(Angles)    0.00
          Max(Dihed)        0.00      Max(Improp)    0.00
          ---------------------------------------------------------------------

The optimization has not yet converged - more geometry cycles are needed


    ---------------------------------------------------------------------------
                         Redundant Internal Coordinates
                            (Angstroem and degrees)

        Definition                    Value    dE/dq     Step     New-Value
    ----------------------------------------------------------------------------
     1. B(Cu  1,Cu  0)                2.3917 -0.001002  0.0096    2.4013   
     2. B(Cu  2,Cu  1)                2.3912 -0.000835  0.0095    2.4007   
     3. B(Cu  2,Cu  0)                2.3917 -0.001003  0.0096    2.4013   
     4. A(Cu  1,Cu  0,Cu  2)           59.99  0.000043   -0.00     59.98   
     5. A(Cu  0,Cu  1,Cu  2)           60.01 -0.000022    0.00     60.01   
     6. A(Cu  0,Cu  2,Cu  1)           60.01 -0.000021    0.00     60.01   
    ----------------------------------------------------------------------------

         *************************************************************
         *                GEOMETRY OPTIMIZATION CYCLE   4            *
         *************************************************************


           ************************************************************
           *        Program running with 24 parallel MPI-processes    *
           *              working on a common directory               *
           ************************************************************


           ************************************************************
           *        Program running with 24 parallel MPI-processes    *
           *              working on a common directory               *
           ************************************************************

Diagonalization of the overlap matrix:
Smallest eigenvalue                        ... 8.396e-04
Time for diagonalization                   ...    0.009 sec
Threshold for overlap eigenvalues          ... 1.000e-08
Number of eigenvalues below threshold      ... 0
Time for construction of square roots      ...    0.005 sec
Total time needed                          ...    0.015 sec

-------------------
DFT GRID GENERATION
-------------------

General Integration Accuracy     IntAcc      ...  4.670
Radial Grid Type                 RadialGrid  ... Gauss-Chebyshev
Angular Grid (max. acc.)         AngularGrid ... Lebedev-302
Angular grid pruning method      GridPruning ... 3 (G Style)
Weight generation scheme         WeightScheme... Becke
Basis function cutoff            BFCut       ...    1.0000e-11
Integration weight cutoff        WCut        ...    1.0000e-14
Grids for H and He will be reduced by one unit

# of grid points (after initial pruning)     ...  28668 (   0.0 sec)
# of grid points (after weights+screening)   ...  28574 (   0.0 sec)
nearest neighbour list constructed           ...    0.0 sec
Grid point re-assignment to atoms done       ...    0.0 sec
Grid point division into batches done        ...    0.2 sec
Reduced shell lists constructed in    0.2 sec

Total number of grid points                  ...    28574
Total number of batches                      ...      448
Average number of points per batch           ...       63
Average number of grid points per atom       ...     9525
Average number of shells per batch           ...    13.75 (24.12%)
Average number of basis functions per batch  ...    38.65 (19.23%)
Average number of large shells per batch     ...    10.15 (73.82%)
Average number of large basis fcns per batch ...    28.25 (73.09%)
Maximum spatial batch extension              ...  20.20, 17.16, 22.17 au
Average spatial batch extension              ...   0.56,  0.48,  0.54 au

Time for grid setup =    0.269 sec

--------------
SCF ITERATIONS
--------------
ITER       Energy         Delta-E        Max-DP      RMS-DP      [F,P]     Damp
               ***  Starting incremental Fock matrix formation  ***
  0  -4921.4561993294   0.000000000000 0.00027982  0.00000718  0.0036364 0.7000
  1  -4921.4562010693  -0.000001739866 0.00026623  0.00000637  0.0025476 0.7000
                               ***Turning on DIIS***
  2  -4921.4562022342  -0.000001164936 0.00070339  0.00001642  0.0017839 0.0000
  3  -4921.4562050816  -0.000002847407 0.00022614  0.00000410  0.0001267 0.0000
  4  -4921.4562052575  -0.000000175854 0.00008085  0.00000183  0.0000621 0.0000
  5  -4921.4562052888  -0.000000031303 0.00004759  0.00000102  0.0000740 0.0000
  6  -4921.4562053057  -0.000000016902 0.00005792  0.00000118  0.0000389 0.0000
  7  -4921.4562053169  -0.000000011254 0.00001790  0.00000036  0.0000056 0.0000
  8  -4921.4562053191  -0.000000002190 0.00000925  0.00000016  0.0000021 0.0000
                 **** Energy Check signals convergence ****

               *****************************************************
               *                     SUCCESS                       *
               *           SCF CONVERGED AFTER   9 CYCLES          *
               *****************************************************


Setting up the DFT-NL grid :

General Integration Accuracy     IntAcc      ...  4.340
Radial Grid Type                 RadialGrid  ... Gauss-Chebyshev
Angular Grid (max. acc.)         AngularGrid ... Lebedev-110
Angular grid pruning method      GridPruning ... 3 (G Style)
Weight generation scheme         WeightScheme... Becke
Basis function cutoff            BFCut       ...    1.0000e-11
Integration weight cutoff        WCut        ...    1.0000e-14
Grids for H and He will be reduced by one unit

# of grid points (after initial pruning)     ...   8736 (   0.0 sec)
# of grid points (after weights+screening)   ...   8688 (   0.0 sec)
nearest neighbour list constructed           ...    0.0 sec
Grid point re-assignment to atoms done       ...    0.0 sec
Grid point division into batches done        ...    0.0 sec
Reduced shell lists constructed in    0.0 sec

Total number of grid points                  ...     8688
Total number of batches                      ...      138
Average number of points per batch           ...       62
Average number of grid points per atom       ...     2896
Average number of shells per batch           ...    17.14 (30.08%)
Average number of basis functions per batch  ...    50.57 (25.16%)
Average number of large shells per batch     ...    13.57 (79.17%)
Average number of large basis fcns per batch ...    37.86 (74.86%)
Maximum spatial batch extension              ...  32.38, 15.58, 17.81 au
Average spatial batch extension              ...   1.01,  0.63,  0.70 au

Final grid set up in    0.0 sec

-------------------------------------------------------------------------------
                         DFT-NL dispersion correction                          
-------------------------------------------------------------------------------

SC Energy -4921.456205320 
NL    Energy 0.362843595 
SC+NL Energy -4921.093361725 
NL done in    0.1 sec
-------------------------------------------------------------------------------
Total Energy       :        -4921.09336172 Eh         -133909.75821 eV
  Last Energy change         ...   -4.8749e-10  Tolerance :   1.0000e-08
  Last MAX-Density change    ...    4.8110e-06  Tolerance :   1.0000e-07
             **** THE GBW FILE WAS UPDATED (Cu03C1_D3H.gbw) ****
[...]
 198   0.0000      13.208555       359.4231 
 199   0.0000      13.211556       359.5047 
 200   0.0000      13.211707       359.5088 

                    ********************************
                    * MULLIKEN POPULATION ANALYSIS *
                    ********************************

-----------------------
MULLIKEN ATOMIC CHARGES
-----------------------
   0 Cu:    0.333542
   1 Cu:    0.333226
   2 Cu:    0.333231
Sum of atomic charges:    1.0000000

--------------------------------
MULLIKEN REDUCED ORBITAL CHARGES
--------------------------------
  0 Cus       :     6.628513  s :     6.628513
      pz      :     4.008880  p :    12.104919
      px      :     4.009992
      py      :     4.086048
      dz2     :     1.993092  d :     9.932836
      dxz     :     1.997684
      dyz     :     1.993366
      dx2y2   :     1.985763
      dxy     :     1.962931
      f0      :     0.000020  f :     0.000189
      f+1     :     0.000007
      f-1     :     0.000032
      f+2     :     0.000021
      f-2     :     0.000028
      f+3     :     0.000032
      f-3     :     0.000049
      g0      :     0.000000  g :     0.000001
      g+1     :     0.000000
      g-1     :     0.000000
      g+2     :     0.000000
      g-2     :     0.000000
      g+3     :     0.000000
      g-3     :     0.000000
      g+4     :     0.000000
      g-4     :     0.000000
  1 Cus       :     6.628839  s :     6.628839
      pz      :     4.008887  p :    12.104951
      px      :     4.067043
      py      :     4.029021
      dz2     :     1.993085  d :     9.932793
      dxz     :     1.994441
      dyz     :     1.996603
      dx2y2   :     1.968619
      dxy     :     1.980045
      f0      :     0.000020  f :     0.000189
      f+1     :     0.000026
      f-1     :     0.000013
      f+2     :     0.000027
      f-2     :     0.000023
      f+3     :     0.000032
      f-3     :     0.000049
      g0      :     0.000000  g :     0.000001
      g+1     :     0.000000
      g-1     :     0.000000
      g+2     :     0.000000
      g-2     :     0.000000
      g+3     :     0.000000
      g-3     :     0.000000
      g+4     :     0.000000
      g-4     :     0.000000
  2 Cus       :     6.628835  s :     6.628835
      pz      :     4.008887  p :    12.104950
      px      :     4.067043
      py      :     4.029021
      dz2     :     1.993085  d :     9.932794
      dxz     :     1.994441
      dyz     :     1.996603
      dx2y2   :     1.968619
      dxy     :     1.980045
      f0      :     0.000020  f :     0.000189
      f+1     :     0.000026
      f-1     :     0.000013
      f+2     :     0.000027
      f-2     :     0.000023
      f+3     :     0.000032
      f-3     :     0.000049
      g0      :     0.000000  g :     0.000001
      g+1     :     0.000000
      g-1     :     0.000000
      g+2     :     0.000000
      g-2     :     0.000000
      g+3     :     0.000000
      g-3     :     0.000000
      g+4     :     0.000000
      g-4     :     0.000000


                     *******************************
                     * LOEWDIN POPULATION ANALYSIS *
                     *******************************

----------------------
LOEWDIN ATOMIC CHARGES
----------------------
   0 Cu:    0.333399
   1 Cu:    0.333300
   2 Cu:    0.333301

-------------------------------
LOEWDIN REDUCED ORBITAL CHARGES
-------------------------------
  0 Cus       :     6.452998  s :     6.452998
      pz      :     4.010031  p :    12.222146
      px      :     4.024069
      py      :     4.188046
      dz2     :     2.014116  d :     9.991008
      dxz     :     1.997557
      dyz     :     1.992287
      dx2y2   :     2.000084
      dxy     :     1.986964
      f0      :     0.000040  f :     0.000447
      f+1     :     0.000024
      f-1     :     0.000072
      f+2     :     0.000030
      f-2     :     0.000055
      f+3     :     0.000131
      f-3     :     0.000095
      g0      :     0.000000  g :     0.000001
      g+1     :     0.000000
      g-1     :     0.000000
      g+2     :     0.000000
      g-2     :     0.000000
      g+3     :     0.000000
      g-3     :     0.000000
      g+4     :     0.000000
      g-4     :     0.000000
  1 Cus       :     6.453121  s :     6.453121
      pz      :     4.010038  p :    12.222161
      px      :     4.147045
      py      :     4.065077
      dz2     :     2.014111  d :     9.990970
      dxz     :     1.993601
      dyz     :     1.996235
      dx2y2   :     1.990252
      dxy     :     1.996771
      f0      :     0.000040  f :     0.000448
      f+1     :     0.000060
      f-1     :     0.000036
      f+2     :     0.000049
      f-2     :     0.000036
      f+3     :     0.000131
      f-3     :     0.000095
      g0      :     0.000000  g :     0.000001
      g+1     :     0.000000
      g-1     :     0.000000
      g+2     :     0.000000
      g-2     :     0.000000
      g+3     :     0.000000
      g-3     :     0.000000
      g+4     :     0.000000
      g-4     :     0.000000
  2 Cus       :     6.453119  s :     6.453119
      pz      :     4.010038  p :    12.222161
      px      :     4.147045
      py      :     4.065077
      dz2     :     2.014111  d :     9.990970
      dxz     :     1.993601
      dyz     :     1.996235
      dx2y2   :     1.990253
      dxy     :     1.996771
      f0      :     0.000040  f :     0.000448
      f+1     :     0.000060
      f-1     :     0.000036
      f+2     :     0.000049
      f-2     :     0.000036
      f+3     :     0.000131
      f-3     :     0.000095
      g0      :     0.000000  g :     0.000001
      g+1     :     0.000000
      g-1     :     0.000000
      g+2     :     0.000000
      g-2     :     0.000000
      g+3     :     0.000000
      g-3     :     0.000000
      g+4     :     0.000000
      g-4     :     0.000000


                      *****************************
                      * MAYER POPULATION ANALYSIS *
                      *****************************

  NA   - Mulliken gross atomic population
  ZA   - Total nuclear charge
  QA   - Mulliken gross atomic charge
  VA   - Mayer's total valence
  BVA  - Mayer's bonded valence
  FA   - Mayer's free valence

  ATOM       NA         ZA         QA         VA         BVA        FA
  0 Cu    28.6665    29.0000     0.3335     1.0313     1.0313    -0.0000
  1 Cu    28.6668    29.0000     0.3332     1.0316     1.0316    -0.0000
  2 Cu    28.6668    29.0000     0.3332     1.0316     1.0316    -0.0000

  Mayer bond orders larger than 0.100000
B(  0-Cu,  1-Cu) :   0.5157 B(  0-Cu,  2-Cu) :   0.5156 B(  1-Cu,  2-Cu) :   0.5160 


-------
TIMINGS
-------

Total SCF time: 0 days 0 hours 0 min 3 sec 

Total time                  ....       3.419 sec
Sum of individual times     ....       3.122 sec  ( 91.3%)

Fock matrix formation       ....       2.778 sec  ( 81.3%)
  XC integration            ....       0.131 sec  (  4.7% of F)
    Basis function eval.    ....       0.015 sec  ( 11.3% of XC)
    Density eval.           ....       0.024 sec  ( 18.2% of XC)
    XC-Functional eval.     ....       0.008 sec  (  5.9% of XC)
    XC-Potential eval.      ....       0.036 sec  ( 27.2% of XC)
Diagonalization             ....       0.024 sec  (  0.7%)
Density matrix formation    ....       0.003 sec  (  0.1%)
Population analysis         ....       0.007 sec  (  0.2%)
Initial guess               ....       0.016 sec  (  0.5%)
Orbital Transformation      ....       0.000 sec  (  0.0%)
Orbital Orthonormalization  ....       0.011 sec  (  0.3%)
DIIS solution               ....       0.006 sec  (  0.2%)
Grid generation             ....       0.287 sec  (  8.4%)

-------------------------   --------------------
FINAL SINGLE POINT ENERGY     -4921.093362389329
-------------------------   --------------------

                                *** OPTIMIZATION RUN DONE ***

                            ***************************************
                            *     ORCA property calculations      *
                            ***************************************

                                    ---------------------
                                    Active property flags
                                    ---------------------
   (+) Dipole Moment


------------------------------------------------------------------------------
                       ORCA ELECTRIC PROPERTIES CALCULATION
------------------------------------------------------------------------------

Dipole Moment Calculation                       ... on
Quadrupole Moment Calculation                   ... off
Polarizability Calculation                      ... off
GBWName                                         ... Cu03C1_D3H.gbw
Electron density file                           ... Cu03C1_D3H.scfp
The origin for moment calculation is the CENTER OF MASS  = ( 0.000000,  0.000001  0.000000)

-------------
DIPOLE MOMENT
-------------
                                X             Y             Z
Electronic contribution:     -0.00000       0.00036      -0.00000
Nuclear contribution   :     -0.00000       0.00000       0.00000
                        -----------------------------------------
Total Dipole Moment    :     -0.00000       0.00036      -0.00000
                        -----------------------------------------
Magnitude (a.u.)       :      0.00036
Magnitude (Debye)      :      0.00091



--------------------
Rotational spectrum 
--------------------
 
Rotational constants in cm-1:     0.091930     0.091857     0.045947 
Rotational constants in MHz :  2755.992280  2753.791736  1377.445784 

 Dipole components along the rotational axes: 
x,y,z [a.u.] :    -0.000357     0.000005    -0.000000 
x,y,z [Debye]:    -0.000909     0.000014    -0.000000 

 

----------------------------------------------------------------------------
                           ORCA NUMERICAL FREQUENCIES
                              (24-process run)
----------------------------------------------------------------------------

Number of atoms                ... 3
Central differences            ... used
Number of displacements        ... 18
Numerical increment            ... 5.000e-03 bohr
IR-spectrum generation         ... on
Raman-spectrum generation      ... off
Surface Crossing Hessian       ... off

 WARNING: There are more processes than displacements to do
  ====> : Reducing number of processes to   9

The output will be reduced. Please look at the following files:
SCF program output             ... >Cu03C1_D3H.lastscf
Integral program output        ... >Cu03C1_D3H.lastint
Gradient program output        ... >Cu03C1_D3H.lastgrad
Dipole moment program output   ... >Cu03C1_D3H.lastmom
AutoCI program output          ... >Cu03C1_D3H.lastautoci


         <<< Energy and Gradient at the input geometry >>>

        <<< Energy and Gradient at displaced geometries >>>
             <<<Displacing   2/coordinate 1 (+)>>>
             <<<Displacing   1/coordinate 2 (+)>>>
             <<<Displacing   1/coordinate 3 (+)>>>
             <<<Displacing   2/coordinate 3 (+)>>>
             <<<Displacing   3/coordinate 3 (+)>>>
             <<<Displacing   3/coordinate 2 (+)>>>
             <<<Displacing   3/coordinate 1 (+)>>>
             <<<Displacing   2/coordinate 2 (+)>>>
             <<<Displacing   1/coordinate 1 (+)>>>
             <<<Displacing   1/coordinate 1 (-)>>>
             <<<Displacing   2/coordinate 1 (-)>>>
             <<<Displacing   2/coordinate 2 (-)>>>
             <<<Displacing   3/coordinate 2 (-)>>>
             <<<Displacing   3/coordinate 1 (-)>>>
             <<<Displacing   1/coordinate 2 (-)>>>
             <<<Displacing   1/coordinate 3 (-)>>>
             <<<Displacing   2/coordinate 3 (-)>>>
             <<<Displacing   3/coordinate 3 (-)>>>

-----------------------
VIBRATIONAL FREQUENCIES
-----------------------

Scaling factor for frequencies =  1.000000000 (already applied!)

   0:         0.00 cm**-1
   1:         0.00 cm**-1
   2:         0.00 cm**-1
   3:         0.00 cm**-1
   4:         0.00 cm**-1
   5:         0.00 cm**-1
   6:       164.97 cm**-1
   7:       165.15 cm**-1
   8:       232.93 cm**-1


------------
NORMAL MODES
------------

These modes are the cartesian displacements weighted by the diagonal matrix
M(i,i)=1/sqrt(m[i]) where m[i] is the mass of the displaced atom
Thus, these vectors are normalized but *not* orthogonal

                  0          1          2          3          4          5    
      0       0.000000   0.000000   0.000000   0.000000   0.000000   0.000000
      1       0.000000   0.000000   0.000000   0.000000   0.000000   0.000000
      2       0.000000   0.000000   0.000000   0.000000   0.000000   0.000000
      3       0.000000   0.000000   0.000000   0.000000   0.000000   0.000000
      4       0.000000   0.000000   0.000000   0.000000   0.000000   0.000000
      5       0.000000   0.000000   0.000000   0.000000   0.000000   0.000000
      6       0.000000   0.000000   0.000000   0.000000   0.000000   0.000000
      7       0.000000   0.000000   0.000000   0.000000   0.000000   0.000000
      8       0.000000   0.000000   0.000000   0.000000   0.000000   0.000000
                   6          7          8    
      0      -0.237904   0.525930  -0.000043
      1       0.533620   0.241431   0.568882
      2       0.000000   0.000000   0.000000
      3      -0.329941  -0.465981   0.507249
      4      -0.472925   0.334934  -0.284478
      5       0.000000   0.000000   0.000000
      6       0.567845  -0.059949  -0.507206
      7      -0.060695  -0.576365  -0.284404
      8       0.000000   0.000000   0.000000


-----------
IR SPECTRUM  
-----------

 Mode    freq (cm**-1)   T**2         TX         TY         TZ
-------------------------------------------------------------------
   6:       164.97    1.800971  (  0.552486   1.223000   0.000006)
   7:       165.15    1.797611  ( -1.221301   0.553205  -0.000004)
   8:       232.93    0.000405  (  0.000104  -0.020121  -0.000002)

The first frequency considered to be a vibration is 6
The total number of vibrations considered is 3


--------------------------
THERMOCHEMISTRY AT 298.15K
--------------------------

Temperature         ... 298.15 K
Pressure            ... 1.00 atm
Total Mass          ... 190.65 AMU

Throughout the following assumptions are being made:
  (1) The electronic state is orbitally nondegenerate
  (2) There are no thermally accessible electronically excited states
  (3) Hindered rotations indicated by low frequency modes are not
      treated as such but are treated as vibrations and this may
      cause some error
  (4) All equations used are the standard statistical mechanics
      equations for an ideal gas
  (5) All vibrations are strictly harmonic

freq.     164.97  E(vib)   ...       0.39 
freq.     165.15  E(vib)   ...       0.39 
freq.     232.93  E(vib)   ...       0.32 

------------
INNER ENERGY
------------

The inner energy is: U= E(el) + E(ZPE) + E(vib) + E(rot) + E(trans)
    E(el)   - is the total energy from the electronic structure calculation
              = E(kin-el) + E(nuc-el) + E(el-el) + E(nuc-nuc)
    E(ZPE)  - the the zero temperature vibrational energy from the frequency calculation
    E(vib)  - the the finite temperature correction to E(ZPE) due to population
              of excited vibrational states
    E(rot)  - is the rotational thermal energy
    E(trans)- is the translational thermal energy

Summary of contributions to the inner energy U:
Electronic energy                ...  -4921.09336239 Eh
Zero point energy                ...      0.00128273 Eh       0.80 kcal/mol
Thermal vibrational correction   ...      0.00174607 Eh       1.10 kcal/mol
Thermal rotational correction    ...      0.00141627 Eh       0.89 kcal/mol
Thermal translational correction ...      0.00141627 Eh       0.89 kcal/mol
-----------------------------------------------------------------------
Total thermal energy                  -4921.08750104 Eh


Summary of corrections to the electronic energy:
(perhaps to be used in another calculation)
Total thermal correction                  0.00457862 Eh       2.87 kcal/mol
Non-thermal (ZPE) correction              0.00128273 Eh       0.80 kcal/mol
-----------------------------------------------------------------------
Total correction                          0.00586135 Eh       3.68 kcal/mol


--------
ENTHALPY
--------

The enthalpy is H = U + kB*T
                kB is Boltzmann's constant
Total free energy                 ...  -4921.08750104 Eh 
Thermal Enthalpy correction       ...      0.00094421 Eh       0.59 kcal/mol
-----------------------------------------------------------------------
Total Enthalpy                    ...  -4921.08655683 Eh


Note: Rotational entropy computed according to Herzberg 
Infrared and Raman Spectra, Chapter V,1, Van Nostrand Reinhold, 1945 
Point Group:  Cs, Symmetry Number:   1  
Rotational constants in cm-1:     0.091930     0.091857     0.045947 

Vibrational entropy computed according to the QRRHO of S. Grimme
Chem.Eur.J. 2012 18 9955


-------
ENTROPY
-------

The entropy contributions are T*S = T*(S(el)+S(vib)+S(rot)+S(trans))
     S(el)   - electronic entropy
     S(vib)  - vibrational entropy
     S(rot)  - rotational entropy
     S(trans)- translational entropy
The entropies will be listed as mutliplied by the temperature to get
units of energy

Electronic entropy                ...      0.00000000 Eh      0.00 kcal/mol
Vibrational entropy               ...      0.00323649 Eh      2.03 kcal/mol
Rotational entropy                ...      0.01321886 Eh      8.29 kcal/mol
Translational entropy             ...      0.01978512 Eh     12.42 kcal/mol
-----------------------------------------------------------------------
Final entropy term                ...      0.03624046 Eh     22.74 kcal/mol

In case the symmetry of your molecule has not been determined correctly
or in case you have a reason to use a different symmetry number we print 
out the resulting rotational entropy values for sn=1,12 :
 --------------------------------------------------------
|  sn= 1 | S(rot)=       0.01321886 Eh      8.29 kcal/mol|
|  sn= 2 | S(rot)=       0.01256440 Eh      7.88 kcal/mol|
|  sn= 3 | S(rot)=       0.01218157 Eh      7.64 kcal/mol|
|  sn= 4 | S(rot)=       0.01190995 Eh      7.47 kcal/mol|
|  sn= 5 | S(rot)=       0.01169926 Eh      7.34 kcal/mol|
|  sn= 6 | S(rot)=       0.01152711 Eh      7.23 kcal/mol|
|  sn= 7 | S(rot)=       0.01138157 Eh      7.14 kcal/mol|
|  sn= 8 | S(rot)=       0.01125549 Eh      7.06 kcal/mol|
|  sn= 9 | S(rot)=       0.01114428 Eh      6.99 kcal/mol|
|  sn=10 | S(rot)=       0.01104480 Eh      6.93 kcal/mol|
|  sn=11 | S(rot)=       0.01095481 Eh      6.87 kcal/mol|
|  sn=12 | S(rot)=       0.01087266 Eh      6.82 kcal/mol|
 --------------------------------------------------------


-------------------
GIBBS FREE ENERGY
-------------------

The Gibbs free energy is G = H - T*S

Total enthalpy                    ...  -4921.08655683 Eh 
Total entropy correction          ...     -0.03624046 Eh    -22.74 kcal/mol
-----------------------------------------------------------------------
Final Gibbs free energy         ...  -4921.12279730 Eh

For completeness - the Gibbs free energy minus the electronic energy
G-E(el)                           ...     -0.02943491 Eh    -18.47 kcal/mol


Total Time for Numerical Frequencies  :      3460.724 sec

Timings for individual modules:

Sum of individual times         ...     1678.153 sec (=  27.969 min)
GTO integral calculation        ...        5.668 sec (=   0.094 min)   0.3 %
SCF iterations                  ...       53.662 sec (=   0.894 min)   3.2 %
SCF Gradient evaluation         ...     1618.614 sec (=  26.977 min)  96.5 %
Geometry relaxation             ...        0.209 sec (=   0.003 min)   0.0 %
                             ****ORCA TERMINATED NORMALLY****
TOTAL RUN TIME: 0 days 1 hours 21 minutes 11 seconds 854 msec
