
                                 *****************
                                 * O   R   C   A *
                                 *****************

           --- An Ab Initio, DFT and Semiempirical electronic structure package ---

                  #######################################################
                  #                        -***-                        #
                  #          Department of theory and spectroscopy      #
                  #               Directorship: Frank Neese             #
                  #        Max Planck Institute fuer Kohlenforschung    #
                  #                Kaiser Wilhelm Platz 1               #
                  #                 D-45470 Muelheim/Ruhr               #
                  #                      Germany                        #
                  #                                                     #
                  #                  All rights reserved                #
                  #                        -***-                        #
                  #######################################################


                         Program Version 4.2.0 -  RELEASE  -


 With contributions from (in alphabetic order):
   Daniel Aravena         : Magnetic Suceptibility
   Michael Atanasov       : Ab Initio Ligand Field Theory (pilot matlab implementation)
   Alexander A. Auer      : GIAO ZORA, VPT2
   Ute Becker             : Parallelization
   Giovanni Bistoni       : ED, misc. LED, open-shell LED, HFLED
   Martin Brehm           : Molecular dynamics
   Dmytro Bykov           : SCF Hessian
   Vijay G. Chilkuri      : MRCI spin determinant printing, contributions to CSF-ICE
   Dipayan Datta          : RHF DLPNO-CCSD density
   Achintya Kumar Dutta   : EOM-CC, STEOM-CC
   Dmitry Ganyushin       : Spin-Orbit,Spin-Spin,Magnetic field MRCI
   Miquel Garcia          : C-PCM Hessian, Gaussian charge scheme
   Yang Guo               : DLPNO-NEVPT2, CIM, IAO-localization
   Andreas Hansen         : Spin unrestricted coupled pair/coupled cluster methods
   Benjamin Helmich-Paris : CASSCF linear response (MC-RPA)
   Lee Huntington         : MR-EOM, pCC
   Robert Izsak           : Overlap fitted RIJCOSX, COSX-SCS-MP3, EOM
   Christian Kollmar      : KDIIS, OOCD, Brueckner-CCSD(T), CCSD density
   Simone Kossmann        : Meta GGA functionals, TD-DFT gradient, OOMP2, MP2 Hessian
   Martin Krupicka        : AUTO-CI
   Lucas Lang             : DCDCAS
   Dagmar Lenk            : GEPOL surface, SMD
   Dimitrios Liakos       : Extrapolation schemes; Compound Job, initial MDCI parallelization
   Dimitrios Manganas     : Further ROCIS development; embedding schemes
   Dimitrios Pantazis     : SARC Basis sets
   Taras Petrenko         : DFT Hessian,TD-DFT gradient, ASA, ECA, R-Raman, ABS, FL, XAS/XES, NRVS
   Peter Pinski           : DLPNO-MP2, DLPNO-MP2 Gradient
   Christoph Reimann      : Effective Core Potentials
   Marius Retegan         : Local ZFS, SOC
   Christoph Riplinger    : Optimizer, TS searches, QM/MM, DLPNO-CCSD(T), (RO)-DLPNO pert. Triples
   Tobias Risthaus        : Range-separated hybrids, TD-DFT gradient, RPA, STAB
   Michael Roemelt        : Original ROCIS implementation
   Masaaki Saitow         : Open-shell DLPNO-CCSD energy and density
   Barbara Sandhoefer     : DKH picture change effects
   Avijit Sen             : IP-ROCIS
   Kantharuban Sivalingam : CASSCF convergence, NEVPT2, FIC-MRCI
   Bernardo de Souza      : ESD, SOC TD-DFT
   Georgi Stoychev        : AutoAux, RI-MP2 NMR
   Willem Van den Heuvel  : Paramagnetic NMR
   Boris Wezisla          : Elementary symmetry handling
   Frank Wennmohs         : Technical directorship


 We gratefully acknowledge several colleagues who have allowed us to
 interface, adapt or use parts of their codes:
   Stefan Grimme, W. Hujo, H. Kruse,             : VdW corrections, initial TS optimization,
                  C. Bannwarth                     DFT functionals, gCP, sTDA/sTD-DF
   Ed Valeev, F. Pavosevic, A. Kumar             : LibInt (2-el integral package), F12 methods
   Garnet Chan, S. Sharma, J. Yang, R. Olivares  : DMRG
   Ulf Ekstrom                                   : XCFun DFT Library
   Mihaly Kallay                                 : mrcc  (arbitrary order and MRCC methods)
   Andreas Klamt, Michael Diedenhofen            : otool_cosmo (COSMO solvation model)
   Jiri Pittner, Ondrej Demel                    : Mk-CCSD
   Frank Weinhold                                : gennbo (NPA and NBO analysis)
   Christopher J. Cramer and Donald G. Truhlar   : smd solvation model
   Lars Goerigk                                  : TD-DFT with DH, B97 family of functionals
   V. Asgeirsson, H. Jonsson                     : NEB implementation
   FAccTs GmbH                                   : IRC, NEB, NEB-TS, Multilevel, MM, QM/MM, CI optimization
   S Lehtola, MJT Oliveira, MAL Marques          : LibXC Library


 Your calculation uses the libint2 library for the computation of 2-el integrals
 For citations please refer to: http://libint.valeyev.net

 Your ORCA version has been built with support for libXC version: 4.2.3
 For citations please refer to: https://tddft.org/programs/libxc/

 This ORCA versions uses:
   CBLAS   interface :  Fast vector & matrix operations
   LAPACKE interface :  Fast linear algebra routines
   SCALAPACK package :  Parallel linear algebra routines


Your calculation utilizes the atom-pairwise dispersion correction
with the Becke-Johnson damping scheme (D3BJ)
Cite in your paper:
S.Grimme, S.Ehrlich, L.Goerigk, J Comput Chem, (2011), 32, 1456–1465 
S.Grimme, J.Antony, S.Ehrlich and H.Krieg, J.Chem.Phys., 132, (2010), 154104 
   

----- Orbital basis set information -----
Your calculation utilizes the basis: def2-TZVPPD
   F. Weigend and R. Ahlrichs, Phys. Chem. Chem. Phys. 7, 3297 (2005).
   D. Rappoport and F. Furche, J. Chem. Phys. 133 134105 (2010).

----- AuxJK basis set information -----
Your calculation utilizes the auxiliary basis: def2/JK
   H-Ba, Hf-Rn: F. Weigend, J. Comput. Chem. 29, 167 (2008).

cite the ECPs for Ag [Def2-ECP] as follows:
Ce-Yb(ecp-28): M. Dolg, H. Stoll, H.Preuss, J. Chem. Phys., 1989, 90, 1730-1734.
Y-Cd(ecp-28), Hf-Hg(ecp-46): D. Andrae,U. Haeussermann, M. Dolg, H. Stoll, H. Preuss, Theor. Chim. Acta, 1990, 77, 123-141.
In-Sb(ecp-28), Tl-Bi(ecp-46): B. Metz, H. Stoll, M. Dolg, J. Chem. Phys., 2000, 113, 2563-2569.
Te-Xe(ecp-28), Po-Rn(ecp-46): K. A. Peterson, D. Figgen, E. Goll, H. Stoll, M. Dolg, J. Chem. Phys., 2003, 119, 11113-11123.
Rb(ecp-28), Cs(ecp-46): T. Leininger, A. Nicklass, W. Kuechle, H. Stoll, M. Dolg, A. Bergner, Chem. Phys. Lett., 1996, 255, 274-280.
Sr(ecp-28), Ba(ecp-46): M. Kaupp, P. V. Schleyer, H. Stoll and H. Preuss, J. Chem. Phys., 1991, 94, 1360-1366.
La(ecp-46): M. Dolg, H. Stoll, A. Savin, H. Preuss, Theor. Chim. Acta, 1989, 75, 173-194.
Lu(ecp-28): X. Cao, M. Dolg, J. Chem. Phys., 2001, 115, 7348-7355.

ECP parameters for Ag [Def2-ECP] have been obtained from:
TURBOMOLE (7.0.2)

================================================================================
                                        WARNINGS
                       Please study these warnings very carefully!
================================================================================


INFO   : the flag for use of LIBINT has been found!

================================================================================
                                       INPUT FILE
================================================================================
NAME = Ag01N0_F.in
|  1> #
|  2> # Ag01N0_F TPSSh-D3BJ/Def2-TZVPPD
|  3> #
|  4> ! tpssh d3bj def2-tzvppd def2/jk grid4 nofinalgrid
|  5> 
|  6> *xyz 0 1
|  7> Ag       0.000000    0.000000    0.317712 
|  8> F        0.000000    0.000000   -1.659163 
|  9> *
| 10> 
| 11> %maxcore 5000
| 12> 
| 13> %pal
| 14> nprocs = 24
| 15> end
| 16> 
| 17> 
| 18>                          ****END OF INPUT****
================================================================================

                       ****************************
                       * Single Point Calculation *
                       ****************************

---------------------------------
CARTESIAN COORDINATES (ANGSTROEM)
---------------------------------
  Ag     0.000000    0.000000    0.317712
  F      0.000000    0.000000   -1.659163

----------------------------
CARTESIAN COORDINATES (A.U.)
----------------------------
  NO LB      ZA    FRAG     MASS         X           Y           Z
   0 Ag   19.0000*   0   107.870    0.000000    0.000000    0.600389
   1 F     9.0000    0    18.998    0.000000    0.000000   -3.135364
* core charge reduced due to ECP

--------------------------------
INTERNAL COORDINATES (ANGSTROEM)
--------------------------------
 Ag     0   0   0     0.000000000000     0.00000000     0.00000000
 F      1   0   0     1.976875000000     0.00000000     0.00000000

---------------------------
INTERNAL COORDINATES (A.U.)
---------------------------
 Ag     0   0   0     0.000000000000     0.00000000     0.00000000
 F      1   0   0     3.735752350996     0.00000000     0.00000000

---------------------
BASIS SET INFORMATION
---------------------
There are 2 groups of distinct atoms

 Group   1 Type Ag  : 7s7p6d2f1g contracted to 6s4p3d2f1g pattern {211111/4111/411/11/1}
 Group   2 Type F   : 12s7p3d1f contracted to 6s4p3d1f pattern {621111/4111/111/1}

Atom   0Ag   basis set group =>   1
Atom   1F    basis set group =>   2
----------------------------------
AUXILIARY/JK BASIS SET INFORMATION
----------------------------------
There are 2 groups of distinct atoms

 Group   1 Type Ag  : 13s12p10d9f6g3h2i contracted to 11s10p9d8f6g3h2i pattern {31111111111/3111111111/211111111/21111111/111111/111/11}
 Group   2 Type F   : 14s10p6d2f1g contracted to 10s8p4d2f1g pattern {5111111111/31111111/3111/11/1}

Atom   0Ag   basis set group =>   1
Atom   1F    basis set group =>   2
-------------------------
ECP PARAMETER INFORMATION
-------------------------

 Group 1, Type Ag ECP Def2-ECP (replacing 28 core electrons, lmax=3)

Atom   0Ag   ECP group =>   1



           ************************************************************
           *        Program running with 24 parallel MPI-processes    *
           *              working on a common directory               *
           ************************************************************
------------------------------------------------------------------------------
                           ORCA GTO INTEGRAL CALCULATION
------------------------------------------------------------------------------

                         BASIS SET STATISTICS AND STARTUP INFO

 # of primitive gaussian shells          ...   46
 # of primitive gaussian functions       ...  136
 # of contracted shells                  ...   30
 # of contracted basis functions         ...   96
 Highest angular momentum                ...    4
 Maximum contraction depth               ...    6
 Integral package used                   ... LIBINT
 Integral threshhold            Thresh   ...  1.000e-10
 Primitive cut-off              TCut     ...  1.000e-11


------------------------------ INTEGRAL EVALUATION ----------------------------


 * One electron integrals 

   ECP integrals                         ... done
 Pre-screening matrix                    ... done
 Shell pair data                         ... done (   0.000 sec)



           ************************************************************
           *        Program running with 24 parallel MPI-processes    *
           *              working on a common directory               *
           ************************************************************
-------------------------------------------------------------------------------
                                 ORCA SCF
-------------------------------------------------------------------------------

------------
SCF SETTINGS
------------
Hamiltonian:
 Density Functional     Method          .... DFT(GTOs)
 Exchange Functional    Exchange        .... TPSS
 Correlation Functional Correlation     .... TPSS
 LDA part of GGA corr.  LDAOpt          .... PW91-LDA
 Gradients option       PostSCFGGA      .... off
 Hybrid DFT is turned on
   Fraction HF Exchange ScalHFX         ....  0.100000
   Scaling of DF-GGA-X  ScalDFX         ....  0.900000
   Scaling of DF-GGA-C  ScalDFC         ....  1.000000
   Scaling of DF-LDA-C  ScalLDAC        ....  1.000000
   Perturbative correction              ....  0.000000
   Density functional embedding theory  .... OFF
   NL short-range parameter             ....  5.200000


General Settings:
 Integral files         IntName         .... Ag01N0_F
 Hartree-Fock type      HFTyp           .... RHF
 Total Charge           Charge          ....    0
 Multiplicity           Mult            ....    1
 Number of Electrons    NEL             ....   28
 Basis Dimension        Dim             ....   96
 Nuclear Repulsion      ENuc            ....     45.7739121691 Eh

Convergence Acceleration:
 DIIS                   CNVDIIS         .... on
   Start iteration      DIISMaxIt       ....    12
   Startup error        DIISStart       ....  0.200000
   # of expansion vecs  DIISMaxEq       ....     5
   Bias factor          DIISBfac        ....   1.050
   Max. coefficient     DIISMaxC        ....  10.000
 Newton-Raphson         CNVNR           .... off
 SOSCF                  CNVSOSCF        .... off
 Level Shifting         CNVShift        .... on
   Level shift para.    LevelShift      ....    0.2500
   Turn off err/grad.   ShiftErr        ....    0.0010
 Zerner damping         CNVZerner       .... off
 Static damping         CNVDamp         .... on
   Fraction old density DampFac         ....    0.7000
   Max. Damping (<1)    DampMax         ....    0.9800
   Min. Damping (>=0)   DampMin         ....    0.0000
   Turn off err/grad.   DampErr         ....    0.1000
 Fernandez-Rico         CNVRico         .... off

SCF Procedure:
 Maximum # iterations   MaxIter         ....   125
 SCF integral mode      SCFMode         .... Direct
   Integral package                     .... LIBINT
 Reset frequency        DirectResetFreq ....    20
 Integral Threshold     Thresh          ....  1.000e-10 Eh
 Primitive CutOff       TCut            ....  1.000e-11 Eh

Convergence Tolerance:
 Convergence Check Mode ConvCheckMode   .... Total+1el-Energy
 Convergence forced     ConvForced      .... 0
 Energy Change          TolE            ....  1.000e-06 Eh
 1-El. energy change                    ....  1.000e-03 Eh
 DIIS Error             TolErr          ....  1.000e-06


Diagonalization of the overlap matrix:
Smallest eigenvalue                        ... 3.392e-03
Time for diagonalization                   ...    0.003 sec
Threshold for overlap eigenvalues          ... 1.000e-08
Number of eigenvalues below threshold      ... 0
Time for construction of square roots      ...    0.002 sec
Total time needed                          ...    0.005 sec

-------------------
DFT GRID GENERATION
-------------------

General Integration Accuracy     IntAcc      ...  4.670
Radial Grid Type                 RadialGrid  ... Gauss-Chebyshev
Angular Grid (max. acc.)         AngularGrid ... Lebedev-302
Angular grid pruning method      GridPruning ... 3 (G Style)
Weight generation scheme         WeightScheme... Becke
Basis function cutoff            BFCut       ...    1.0000e-10
Integration weight cutoff        WCut        ...    1.0000e-14
Grids for H and He will be reduced by one unit

# of grid points (after initial pruning)     ...  16930 (   0.0 sec)
# of grid points (after weights+screening)   ...  16875 (   0.0 sec)
nearest neighbour list constructed           ...    0.0 sec
Grid point re-assignment to atoms done       ...    0.0 sec
Grid point division into batches done        ...    0.1 sec
Reduced shell lists constructed in    0.1 sec

Total number of grid points                  ...    16875
Total number of batches                      ...      265
Average number of points per batch           ...       63
Average number of grid points per atom       ...     8438
Average number of shells per batch           ...     3.08 (10.26%)
Average number of basis functions per batch  ...     6.46 ( 6.73%)
Average number of large shells per batch     ...     2.00 (65.00%)
Average number of large basis fcns per batch ...     4.31 (66.67%)
Maximum spatial batch extension              ...  36.77, 40.43, 23.83 au
Average spatial batch extension              ...   1.19,  1.22,  0.86 au

Time for grid setup =    0.164 sec

------------------------------
INITIAL GUESS: MODEL POTENTIAL
------------------------------
Loading Hartree-Fock densities                     ... done
  calling /sw/apps/orca/orca_4_2_0_linux_x86-64_openmpi314/orca Ag01N0_F_atom47.inp > Ag01N0_F_atom47.out in order to generate an atomic fitting density for atom 0 (Ag with ECP) on-the-fly... 
    atom 0 (Ag), assumed electronic state with S=2: 1s2 2s2 2p6 3s2 3p6 4s2 3d10 4p6 5s2 4d9           ... done
Calculating cut-offs                               ... done
Setting up the integral package                    ... done
Initializing the effective Hamiltonian             ... done
Starting the Coulomb interaction                   ... done (   0.0 sec)
Reading the grid                                   ... done
Mapping shells                                     ... done
Starting the XC term evaluation                    ... done (   0.0 sec)
  promolecular density results
     # of electrons  =     56.001165919
     EX              =   -153.357809012
     EC              =     -2.789793162
     EX+EC           =   -156.147602174
Transforming the Hamiltonian                       ... done (   0.0 sec)
Diagonalizing the Hamiltonian                      ... done (   0.0 sec)
Back transforming the eigenvectors                 ... done (   0.0 sec)
Now organizing SCF variables                       ... done
                      ------------------
                      INITIAL GUESS DONE (   1.4 sec)
                      ------------------
--------------
SCF ITERATIONS
--------------
ITER       Energy         Delta-E        Max-DP      RMS-DP      [F,P]     Damp
               ***  Starting incremental Fock matrix formation  ***
  0   -246.6264148854   0.000000000000 0.07439022  0.00308768  0.5271693 0.7000
  1   -246.7172622596  -0.090847374251 0.05557419  0.00173017  0.3426927 0.7000
  2   -246.7405338358  -0.023271576246 0.01730406  0.00062019  0.2252679 0.7000
                               ***Turning on DIIS***
  3   -246.7583890062  -0.017855170333 0.01113044  0.00028688  0.1533060 0.7000
  4   -246.7722399885  -0.013850982333 0.00688600  0.00018605  0.1069234 0.7000
  5   -246.7817748045  -0.009534815944 0.01477560  0.00040370  0.0756117 0.0000
  6   -246.8040984393  -0.022323634804 0.00356012  0.00008990  0.0033131 0.0000
  7   -246.8041096294  -0.000011190101 0.00090012  0.00003893  0.0038471 0.0000
  8   -246.8041224769  -0.000012847497 0.00062868  0.00001985  0.0013046 0.0000
  9   -246.8041247029  -0.000002226041 0.00102235  0.00002861  0.0003638 0.0000
 10   -246.8041255390  -0.000000836074 0.00014155  0.00000513  0.0002601 0.0000
                 **** Energy Check signals convergence ****

               *****************************************************
               *                     SUCCESS                       *
               *           SCF CONVERGED AFTER  11 CYCLES          *
               *****************************************************


----------------
TOTAL SCF ENERGY
----------------

Total Energy       :         -246.80412566 Eh           -6715.88169 eV

Components:
Nuclear Repulsion  :           45.77391217 Eh            1245.57147 eV
Electronic Energy  :         -292.57803783 Eh           -7961.45316 eV
One Electron Energy:         -492.73516372 Eh          -13408.00545 eV
Two Electron Energy:          200.15712590 Eh            5446.55229 eV

Virial components:
Potential Energy   :         -402.70725958 Eh          -10958.22164 eV
Kinetic Energy     :          155.90313392 Eh            4242.33995 eV
Virial Ratio       :            2.58306071


DFT components:
N(Alpha)           :       14.000010650535 electrons
N(Beta)            :       14.000010650535 electrons
N(Total)           :       28.000021301070 electrons
E(X)               :      -21.098545742479 Eh       
E(C)               :       -1.136201221422 Eh       
E(XC)              :      -22.234746963901 Eh       
DFET-embed. en.    :        0.000000000000 Eh       

---------------
SCF CONVERGENCE
---------------

  Last Energy change         ...   -1.1808e-07  Tolerance :   1.0000e-06
  Last MAX-Density change    ...    5.2306e-05  Tolerance :   1.0000e-05
  Last RMS-Density change    ...    1.4419e-06  Tolerance :   1.0000e-06
  Last DIIS Error            ...    5.1910e-05  Tolerance :   1.0000e-06

             **** THE GBW FILE WAS UPDATED (Ag01N0_F.gbw) ****
             **** DENSITY FILE WAS UPDATED (Ag01N0_F.scfp) ****
             **** ENERGY FILE WAS UPDATED (Ag01N0_F.en.tmp) ****
             **** THE GBW FILE WAS UPDATED (Ag01N0_F.gbw) ****
             **** DENSITY FILE WAS UPDATED (Ag01N0_F.scfp) ****
----------------
ORBITAL ENERGIES
----------------

  NO   OCC          E(Eh)            E(eV) 
   0   2.0000     -24.486943      -666.3236 
   1   2.0000      -3.697779      -100.6217 
   2   2.0000      -2.305345       -62.7316 
   3   2.0000      -2.303000       -62.6678 
   4   2.0000      -2.303000       -62.6678 
   5   2.0000      -1.014011       -27.5927 
   6   2.0000      -0.375348       -10.2137 
   7   2.0000      -0.345724        -9.4076 
   8   2.0000      -0.345724        -9.4076 
   9   2.0000      -0.327170        -8.9028 
  10   2.0000      -0.327170        -8.9027 
  11   2.0000      -0.265654        -7.2288 
  12   2.0000      -0.265654        -7.2288 
  13   2.0000      -0.262242        -7.1360 
  14   0.0000      -0.130407        -3.5485 
  15   0.0000      -0.005788        -0.1575 
  16   0.0000      -0.005788        -0.1575 
  17   0.0000       0.033939         0.9235 
  18   0.0000       0.083491         2.2719 
  19   0.0000       0.145696         3.9646 
  20   0.0000       0.153369         4.1734 
  21   0.0000       0.153369         4.1734 
  22   0.0000       0.189871         5.1667 
  23   0.0000       0.189871         5.1667 
  24   0.0000       0.238149         6.4804 
  25   0.0000       0.338842         9.2203 
  26   0.0000       0.386905        10.5282 
  27   0.0000       0.386906        10.5283 
  28   0.0000       0.471789        12.8380 
  29   0.0000       0.471789        12.8380 
  30   0.0000       0.514576        14.0023 
  31   0.0000       0.560838        15.2612 
  32   0.0000       0.560849        15.2615 
  33   0.0000       0.680913        18.5286 
  34   0.0000       0.680913        18.5286 
  35   0.0000       0.682330        18.5671 
  36   0.0000       0.805521        21.9193 
  37   0.0000       0.805521        21.9193 
  38   0.0000       1.067379        29.0449 
  39   0.0000       1.117713        30.4145 
  40   0.0000       1.545310        42.0500 
  41   0.0000       1.545310        42.0500 
  42   0.0000       1.559586        42.4385 
  43   0.0000       1.559587        42.4385 
  44   0.0000       1.565407        42.5969 
  45   0.0000       1.565407        42.5969 
  46   0.0000       1.636834        44.5405 
  47   0.0000       1.657653        45.1070 
  48   0.0000       1.657653        45.1070 
  49   0.0000       1.746245        47.5178 
  50   0.0000       1.955048        53.1996 
  51   0.0000       2.002913        54.5020 
  52   0.0000       2.002914        54.5021 
  53   0.0000       2.012680        54.7678 
  54   0.0000       2.012680        54.7678 
  55   0.0000       2.053182        55.8699 
  56   0.0000       2.317513        63.0627 
  57   0.0000       2.317570        63.0643 
  58   0.0000       2.390689        65.0540 
  59   0.0000       2.390689        65.0540 
  60   0.0000       2.762222        75.1639 
  61   0.0000       3.398796        92.4859 
  62   0.0000       3.398796        92.4859 
  63   0.0000       3.706920       100.8704 
  64   0.0000       4.136575       112.5619 
  65   0.0000       4.771280       129.8331 
  66   0.0000       4.771280       129.8331 
  67   0.0000       4.781485       130.1108 
  68   0.0000       4.781499       130.1112 
  69   0.0000       4.846506       131.8801 
  70   0.0000       4.846506       131.8801 
  71   0.0000       5.038212       137.0967 
  72   0.0000       5.531861       150.5296 
  73   0.0000       5.531871       150.5299 
  74   0.0000       5.532915       150.5583 
  75   0.0000       5.532915       150.5583 
  76   0.0000       5.534417       150.5991 
  77   0.0000       5.534417       150.5991 
  78   0.0000       5.534774       150.6089 
  79   0.0000       5.534812       150.6099 
  80   0.0000       5.598047       152.3306 
  81   0.0000       7.012085       190.8085 
  82   0.0000       7.013270       190.8408 
  83   0.0000       7.028693       191.2605 
  84   0.0000       7.028693       191.2605 
  85   0.0000       7.038042       191.5149 
  86   0.0000       7.038042       191.5149 
  87   0.0000       7.152769       194.6367 
  88   0.0000       8.543572       232.4824 
  89   0.0000       8.543920       232.4919 
  90   0.0000       8.575619       233.3545 
  91   0.0000       8.575619       233.3545 
  92   0.0000       8.775957       238.8059 
  93   0.0000      33.317974       906.6282 
  94   0.0000      57.113363      1554.1336 
  95   0.0000     110.728794      3013.0837 

                    ********************************
                    * MULLIKEN POPULATION ANALYSIS *
                    ********************************

-----------------------
MULLIKEN ATOMIC CHARGES
-----------------------
   0 Ag:    0.681028
   1 F :   -0.681028
Sum of atomic charges:    0.0000000

--------------------------------
MULLIKEN REDUCED ORBITAL CHARGES
--------------------------------
  0 Ags       :     2.328695  s :     2.328695
      pz      :     2.019952  p :     6.072248
      px      :     2.026148
      py      :     2.026148
      dz2     :     1.914132  d :     9.911457
      dxz     :     1.998506
      dyz     :     1.998506
      dx2y2   :     2.000156
      dxy     :     2.000156
      f0      :     0.003118  f :     0.006488
      f+1     :     0.001587
      f-1     :     0.001587
      f+2     :     0.000098
      f-2     :     0.000098
      f+3     :     0.000000
      f-3     :     0.000000
      g0      :     0.000045  g :     0.000084
      g+1     :     0.000019
      g-1     :     0.000019
      g+2     :     0.000000
      g-2     :     0.000000
      g+3     :     0.000000
      g-3     :     0.000000
      g+4     :     0.000000
      g-4     :     0.000000
  1 F s       :     3.993847  s :     3.993847
      pz      :     1.736188  p :     5.683154
      px      :     1.973483
      py      :     1.973483
      dz2     :     0.003975  d :     0.003912
      dxz     :     0.000226
      dyz     :     0.000226
      dx2y2   :    -0.000257
      dxy     :    -0.000257
      f0      :     0.000049  f :     0.000116
      f+1     :     0.000031
      f-1     :     0.000031
      f+2     :     0.000002
      f-2     :     0.000002
      f+3     :     0.000000
      f-3     :     0.000000


                     *******************************
                     * LOEWDIN POPULATION ANALYSIS *
                     *******************************

----------------------
LOEWDIN ATOMIC CHARGES
----------------------
   0 Ag:    0.700275
   1 F :   -0.700275

-------------------------------
LOEWDIN REDUCED ORBITAL CHARGES
-------------------------------
  0 Ags       :     2.212865  s :     2.212865
      pz      :     2.062314  p :     6.135703
      px      :     2.036695
      py      :     2.036695
      dz2     :     1.957366  d :     9.939423
      dxz     :     1.994076
      dyz     :     1.994076
      dx2y2   :     1.996952
      dxy     :     1.996952
      f0      :     0.006114  f :     0.011578
      f+1     :     0.002618
      f-1     :     0.002618
      f+2     :     0.000114
      f-2     :     0.000114
      f+3     :     0.000000
      f-3     :     0.000000
      g0      :     0.000090  g :     0.000156
      g+1     :     0.000033
      g-1     :     0.000033
      g+2     :     0.000000
      g-2     :     0.000000
      g+3     :     0.000000
      g-3     :     0.000000
      g+4     :     0.000000
      g-4     :     0.000000
  1 F s       :     3.891866  s :     3.891866
      pz      :     1.815766  p :     5.706970
      px      :     1.945602
      py      :     1.945602
      dz2     :     0.053496  d :     0.101167
      dxz     :     0.020907
      dyz     :     0.020907
      dx2y2   :     0.002929
      dxy     :     0.002929
      f0      :     0.000124  f :     0.000273
      f+1     :     0.000069
      f-1     :     0.000069
      f+2     :     0.000005
      f-2     :     0.000005
      f+3     :     0.000000
      f-3     :     0.000000


                      *****************************
                      * MAYER POPULATION ANALYSIS *
                      *****************************

  NA   - Mulliken gross atomic population
  ZA   - Total nuclear charge
  QA   - Mulliken gross atomic charge
  VA   - Mayer's total valence
  BVA  - Mayer's bonded valence
  FA   - Mayer's free valence

  ATOM       NA         ZA         QA         VA         BVA        FA
  0 Ag    18.3190    19.0000     0.6810     0.5269     0.5269     0.0000
  1 F      9.6810     9.0000    -0.6810     0.5269     0.5269    -0.0000

  Mayer bond orders larger than 0.100000
B(  0-Ag,  1-F ) :   0.5269 

-------
TIMINGS
-------

Total SCF time: 0 days 0 hours 0 min 3 sec 

Total time                  ....       3.457 sec
Sum of individual times     ....       3.283 sec  ( 95.0%)

Fock matrix formation       ....       1.821 sec  ( 52.7%)
  XC integration            ....       0.153 sec  (  8.4% of F)
    Basis function eval.    ....       0.020 sec  ( 12.9% of XC)
    Density eval.           ....       0.026 sec  ( 16.8% of XC)
    XC-Functional eval.     ....       0.018 sec  ( 12.0% of XC)
    XC-Potential eval.      ....       0.037 sec  ( 24.6% of XC)
Diagonalization             ....       0.014 sec  (  0.4%)
Density matrix formation    ....       0.003 sec  (  0.1%)
Population analysis         ....       0.002 sec  (  0.1%)
Initial guess               ....       1.271 sec  ( 36.8%)
Orbital Transformation      ....       0.000 sec  (  0.0%)
Orbital Orthonormalization  ....       0.000 sec  (  0.0%)
DIIS solution               ....       0.008 sec  (  0.2%)
Grid generation             ....       0.164 sec  (  4.7%)


-------------------------------------------------------------------------------
                          DFT DISPERSION CORRECTION                            
                                                                               
                              DFTD3 V3.1  Rev 1                                
                          USING Becke-Johnson damping                          
-------------------------------------------------------------------------------
The TPSSH functional is recognized
Active option DFTDOPT                   ...         4   

molecular C6(AA) [au] = 356.028846 


            DFT-D V3
 parameters
 s6 scaling factor         :     1.0000 
 a1 scaling factor         :     0.4529 
 s8 scaling factor         :     2.2382 
 a2 scaling factor         :     4.6550 
 ad hoc parameters k1-k3   :    16.0000     1.3333    -4.0000 

 Edisp/kcal,au: -0.349875914657  -0.000557562701 
 E6   /kcal   :  -0.135787088 
 E8   /kcal   :  -0.214088827 
 % E8         :  61.189929884 

-------------------------   ----------------
Dispersion correction           -0.000557563
-------------------------   ----------------


-------------------------   --------------------
FINAL SINGLE POINT ENERGY      -246.804683219754
-------------------------   --------------------


                            ***************************************
                            *     ORCA property calculations      *
                            ***************************************

                                    ---------------------
                                    Active property flags
                                    ---------------------
   (+) Dipole Moment


------------------------------------------------------------------------------
                       ORCA ELECTRIC PROPERTIES CALCULATION
------------------------------------------------------------------------------

Dipole Moment Calculation                       ... on
Quadrupole Moment Calculation                   ... off
Polarizability Calculation                      ... off
GBWName                                         ... Ag01N0_F.gbw
Electron density file                           ... Ag01N0_F.scfp
The origin for moment calculation is the CENTER OF MASS  = ( 0.000000,  0.000000  0.040974)

-------------
DIPOLE MOMENT
-------------
                                X             Y             Z
Electronic contribution:      0.00000       0.00000      20.14175
Nuclear contribution   :      0.00000       0.00000     -17.95816
                        -----------------------------------------
Total Dipole Moment    :      0.00000       0.00000       2.18359
                        -----------------------------------------
Magnitude (a.u.)       :      2.18359
Magnitude (Debye)      :      5.55025



--------------------
Rotational spectrum 
--------------------
 
Rotational constants in cm-1:     0.000000     0.267044     0.267044 
Rotational constants in MHz :     0.000000  8005.762772  8005.762772 

 Dipole components along the rotational axes: 
x,y,z [a.u.] :     2.183593     0.000000     0.000000 
x,y,z [Debye]:     5.550252     0.000000     0.000000 

 

Timings for individual modules:

Sum of individual times         ...        4.635 sec (=   0.077 min)
GTO integral calculation        ...        0.811 sec (=   0.014 min)  17.5 %
SCF iterations                  ...        3.824 sec (=   0.064 min)  82.5 %
                             ****ORCA TERMINATED NORMALLY****
TOTAL RUN TIME: 0 days 0 hours 0 minutes 5 seconds 133 msec
