
                                 *****************
                                 * O   R   C   A *
                                 *****************

           --- An Ab Initio, DFT and Semiempirical electronic structure package ---

                  #######################################################
                  #                        -***-                        #
                  #          Department of theory and spectroscopy      #
                  #               Directorship: Frank Neese             #
                  #        Max Planck Institute fuer Kohlenforschung    #
                  #                Kaiser Wilhelm Platz 1               #
                  #                 D-45470 Muelheim/Ruhr               #
                  #                      Germany                        #
                  #                                                     #
                  #                  All rights reserved                #
                  #                        -***-                        #
                  #######################################################


                         Program Version 4.2.0 -  RELEASE  -


 With contributions from (in alphabetic order):
   Daniel Aravena         : Magnetic Suceptibility
   Michael Atanasov       : Ab Initio Ligand Field Theory (pilot matlab implementation)
   Alexander A. Auer      : GIAO ZORA, VPT2
   Ute Becker             : Parallelization
   Giovanni Bistoni       : ED, misc. LED, open-shell LED, HFLED
   Martin Brehm           : Molecular dynamics
   Dmytro Bykov           : SCF Hessian
   Vijay G. Chilkuri      : MRCI spin determinant printing, contributions to CSF-ICE
   Dipayan Datta          : RHF DLPNO-CCSD density
   Achintya Kumar Dutta   : EOM-CC, STEOM-CC
   Dmitry Ganyushin       : Spin-Orbit,Spin-Spin,Magnetic field MRCI
   Miquel Garcia          : C-PCM Hessian, Gaussian charge scheme
   Yang Guo               : DLPNO-NEVPT2, CIM, IAO-localization
   Andreas Hansen         : Spin unrestricted coupled pair/coupled cluster methods
   Benjamin Helmich-Paris : CASSCF linear response (MC-RPA)
   Lee Huntington         : MR-EOM, pCC
   Robert Izsak           : Overlap fitted RIJCOSX, COSX-SCS-MP3, EOM
   Christian Kollmar      : KDIIS, OOCD, Brueckner-CCSD(T), CCSD density
   Simone Kossmann        : Meta GGA functionals, TD-DFT gradient, OOMP2, MP2 Hessian
   Martin Krupicka        : AUTO-CI
   Lucas Lang             : DCDCAS
   Dagmar Lenk            : GEPOL surface, SMD
   Dimitrios Liakos       : Extrapolation schemes; Compound Job, initial MDCI parallelization
   Dimitrios Manganas     : Further ROCIS development; embedding schemes
   Dimitrios Pantazis     : SARC Basis sets
   Taras Petrenko         : DFT Hessian,TD-DFT gradient, ASA, ECA, R-Raman, ABS, FL, XAS/XES, NRVS
   Peter Pinski           : DLPNO-MP2, DLPNO-MP2 Gradient
   Christoph Reimann      : Effective Core Potentials
   Marius Retegan         : Local ZFS, SOC
   Christoph Riplinger    : Optimizer, TS searches, QM/MM, DLPNO-CCSD(T), (RO)-DLPNO pert. Triples
   Tobias Risthaus        : Range-separated hybrids, TD-DFT gradient, RPA, STAB
   Michael Roemelt        : Original ROCIS implementation
   Masaaki Saitow         : Open-shell DLPNO-CCSD energy and density
   Barbara Sandhoefer     : DKH picture change effects
   Avijit Sen             : IP-ROCIS
   Kantharuban Sivalingam : CASSCF convergence, NEVPT2, FIC-MRCI
   Bernardo de Souza      : ESD, SOC TD-DFT
   Georgi Stoychev        : AutoAux, RI-MP2 NMR
   Willem Van den Heuvel  : Paramagnetic NMR
   Boris Wezisla          : Elementary symmetry handling
   Frank Wennmohs         : Technical directorship


 We gratefully acknowledge several colleagues who have allowed us to
 interface, adapt or use parts of their codes:
   Stefan Grimme, W. Hujo, H. Kruse,             : VdW corrections, initial TS optimization,
                  C. Bannwarth                     DFT functionals, gCP, sTDA/sTD-DF
   Ed Valeev, F. Pavosevic, A. Kumar             : LibInt (2-el integral package), F12 methods
   Garnet Chan, S. Sharma, J. Yang, R. Olivares  : DMRG
   Ulf Ekstrom                                   : XCFun DFT Library
   Mihaly Kallay                                 : mrcc  (arbitrary order and MRCC methods)
   Andreas Klamt, Michael Diedenhofen            : otool_cosmo (COSMO solvation model)
   Jiri Pittner, Ondrej Demel                    : Mk-CCSD
   Frank Weinhold                                : gennbo (NPA and NBO analysis)
   Christopher J. Cramer and Donald G. Truhlar   : smd solvation model
   Lars Goerigk                                  : TD-DFT with DH, B97 family of functionals
   V. Asgeirsson, H. Jonsson                     : NEB implementation
   FAccTs GmbH                                   : IRC, NEB, NEB-TS, Multilevel, MM, QM/MM, CI optimization
   S Lehtola, MJT Oliveira, MAL Marques          : LibXC Library


 Your calculation uses the libint2 library for the computation of 2-el integrals
 For citations please refer to: http://libint.valeyev.net

 Your ORCA version has been built with support for libXC version: 4.2.3
 For citations please refer to: https://tddft.org/programs/libxc/

 This ORCA versions uses:
   CBLAS   interface :  Fast vector & matrix operations
   LAPACKE interface :  Fast linear algebra routines
   SCALAPACK package :  Parallel linear algebra routines


Your calculation utilizes the atom-pairwise dispersion correction
with the Becke-Johnson damping scheme (D3BJ)
Cite in your paper:
S.Grimme, S.Ehrlich, L.Goerigk, J Comput Chem, (2011), 32, 1456–1465 
S.Grimme, J.Antony, S.Ehrlich and H.Krieg, J.Chem.Phys., 132, (2010), 154104 
   

----- Orbital basis set information -----
Your calculation utilizes the basis: def2-TZVPPD
   F. Weigend and R. Ahlrichs, Phys. Chem. Chem. Phys. 7, 3297 (2005).
   D. Rappoport and F. Furche, J. Chem. Phys. 133 134105 (2010).

----- AuxJK basis set information -----
Your calculation utilizes the auxiliary basis: def2/JK
   H-Ba, Hf-Rn: F. Weigend, J. Comput. Chem. 29, 167 (2008).

cite the ECPs for Ag [Def2-ECP] as follows:
Ce-Yb(ecp-28): M. Dolg, H. Stoll, H.Preuss, J. Chem. Phys., 1989, 90, 1730-1734.
Y-Cd(ecp-28), Hf-Hg(ecp-46): D. Andrae,U. Haeussermann, M. Dolg, H. Stoll, H. Preuss, Theor. Chim. Acta, 1990, 77, 123-141.
In-Sb(ecp-28), Tl-Bi(ecp-46): B. Metz, H. Stoll, M. Dolg, J. Chem. Phys., 2000, 113, 2563-2569.
Te-Xe(ecp-28), Po-Rn(ecp-46): K. A. Peterson, D. Figgen, E. Goll, H. Stoll, M. Dolg, J. Chem. Phys., 2003, 119, 11113-11123.
Rb(ecp-28), Cs(ecp-46): T. Leininger, A. Nicklass, W. Kuechle, H. Stoll, M. Dolg, A. Bergner, Chem. Phys. Lett., 1996, 255, 274-280.
Sr(ecp-28), Ba(ecp-46): M. Kaupp, P. V. Schleyer, H. Stoll and H. Preuss, J. Chem. Phys., 1991, 94, 1360-1366.
La(ecp-46): M. Dolg, H. Stoll, A. Savin, H. Preuss, Theor. Chim. Acta, 1989, 75, 173-194.
Lu(ecp-28): X. Cao, M. Dolg, J. Chem. Phys., 2001, 115, 7348-7355.

ECP parameters for Ag [Def2-ECP] have been obtained from:
TURBOMOLE (7.0.2)

================================================================================
                                        WARNINGS
                       Please study these warnings very carefully!
================================================================================


WARNING: your system is open-shell and RHF/RKS was chosen
  ===> : WILL SWITCH to UHF/UKS


INFO   : the flag for use of LIBINT has been found!

================================================================================
                                       INPUT FILE
================================================================================
NAME = Ag03N0_D3H.in
|  1> #
|  2> # Ag03N0_D3H TPSSh-D3BJ/Def2-TZVPPD
|  3> #
|  4> ! tpssh d3bj def2-tzvppd def2/jk grid4 nofinalgrid
|  5> 
|  6> *xyz 0 2
|  7> Ag       0.000000    1.533951   -0.000000 
|  8> Ag       1.328441   -0.766976    0.000000 
|  9> Ag      -1.328441   -0.766976   -0.000000 
| 10> *
| 11> 
| 12> %maxcore 5000
| 13> 
| 14> %pal
| 15> nprocs = 24
| 16> end
| 17> 
| 18> 
| 19>                          ****END OF INPUT****
================================================================================

                       ****************************
                       * Single Point Calculation *
                       ****************************

---------------------------------
CARTESIAN COORDINATES (ANGSTROEM)
---------------------------------
  Ag     0.000000    1.533951   -0.000000
  Ag     1.328441   -0.766976    0.000000
  Ag    -1.328441   -0.766976   -0.000000

----------------------------
CARTESIAN COORDINATES (A.U.)
----------------------------
  NO LB      ZA    FRAG     MASS         X           Y           Z
   0 Ag   19.0000*   0   107.870    0.000000    2.898747   -0.000000
   1 Ag   19.0000*   0   107.870    2.510390   -1.449375    0.000000
   2 Ag   19.0000*   0   107.870   -2.510390   -1.449375   -0.000000
* core charge reduced due to ECP

--------------------------------
INTERNAL COORDINATES (ANGSTROEM)
--------------------------------
 Ag     0   0   0     0.000000000000     0.00000000     0.00000000
 Ag     1   0   0     2.656881734254     0.00000000     0.00000000
 Ag     1   2   0     2.656881734254    60.00000662     0.00000000

---------------------------
INTERNAL COORDINATES (A.U.)
---------------------------
 Ag     0   0   0     0.000000000000     0.00000000     0.00000000
 Ag     1   0   0     5.020778847957     0.00000000     0.00000000
 Ag     1   2   0     5.020778847957    60.00000662     0.00000000

---------------------
BASIS SET INFORMATION
---------------------
There are 1 groups of distinct atoms

 Group   1 Type Ag  : 7s7p6d2f1g contracted to 6s4p3d2f1g pattern {211111/4111/411/11/1}

Atom   0Ag   basis set group =>   1
Atom   1Ag   basis set group =>   1
Atom   2Ag   basis set group =>   1
----------------------------------
AUXILIARY/JK BASIS SET INFORMATION
----------------------------------
There are 1 groups of distinct atoms

 Group   1 Type Ag  : 13s12p10d9f6g3h2i contracted to 11s10p9d8f6g3h2i pattern {31111111111/3111111111/211111111/21111111/111111/111/11}

Atom   0Ag   basis set group =>   1
Atom   1Ag   basis set group =>   1
Atom   2Ag   basis set group =>   1
-------------------------
ECP PARAMETER INFORMATION
-------------------------

 Group 1, Type Ag ECP Def2-ECP (replacing 28 core electrons, lmax=3)

Atom   0Ag   ECP group =>   1
Atom   1Ag   ECP group =>   1
Atom   2Ag   ECP group =>   1



           ************************************************************
           *        Program running with 24 parallel MPI-processes    *
           *              working on a common directory               *
           ************************************************************
------------------------------------------------------------------------------
                           ORCA GTO INTEGRAL CALCULATION
------------------------------------------------------------------------------

                         BASIS SET STATISTICS AND STARTUP INFO

 # of primitive gaussian shells          ...   69
 # of primitive gaussian functions       ...  243
 # of contracted shells                  ...   48
 # of contracted basis functions         ...  168
 Highest angular momentum                ...    4
 Maximum contraction depth               ...    4
 Integral package used                   ... LIBINT
 Integral threshhold            Thresh   ...  1.000e-10
 Primitive cut-off              TCut     ...  1.000e-11


------------------------------ INTEGRAL EVALUATION ----------------------------


 * One electron integrals 

   ECP integrals                         ... done
 Pre-screening matrix                    ... done
 Shell pair data                         ... done (   0.000 sec)



           ************************************************************
           *        Program running with 24 parallel MPI-processes    *
           *              working on a common directory               *
           ************************************************************
-------------------------------------------------------------------------------
                                 ORCA SCF
-------------------------------------------------------------------------------

------------
SCF SETTINGS
------------
Hamiltonian:
 Density Functional     Method          .... DFT(GTOs)
 Exchange Functional    Exchange        .... TPSS
 Correlation Functional Correlation     .... TPSS
 LDA part of GGA corr.  LDAOpt          .... PW91-LDA
 Gradients option       PostSCFGGA      .... off
 Hybrid DFT is turned on
   Fraction HF Exchange ScalHFX         ....  0.100000
   Scaling of DF-GGA-X  ScalDFX         ....  0.900000
   Scaling of DF-GGA-C  ScalDFC         ....  1.000000
   Scaling of DF-LDA-C  ScalLDAC        ....  1.000000
   Perturbative correction              ....  0.000000
   Density functional embedding theory  .... OFF
   NL short-range parameter             ....  5.200000


General Settings:
 Integral files         IntName         .... Ag03N0_D3H
 Hartree-Fock type      HFTyp           .... UHF
 Total Charge           Charge          ....    0
 Multiplicity           Mult            ....    2
 Number of Electrons    NEL             ....   57
 Basis Dimension        Dim             ....  168
 Nuclear Repulsion      ENuc            ....    215.7035784065 Eh

Convergence Acceleration:
 DIIS                   CNVDIIS         .... on
   Start iteration      DIISMaxIt       ....    12
   Startup error        DIISStart       ....  0.200000
   # of expansion vecs  DIISMaxEq       ....     5
   Bias factor          DIISBfac        ....   1.050
   Max. coefficient     DIISMaxC        ....  10.000
 Newton-Raphson         CNVNR           .... off
 SOSCF                  CNVSOSCF        .... off
 Level Shifting         CNVShift        .... on
   Level shift para.    LevelShift      ....    0.2500
   Turn off err/grad.   ShiftErr        ....    0.0010
 Zerner damping         CNVZerner       .... off
 Static damping         CNVDamp         .... on
   Fraction old density DampFac         ....    0.7000
   Max. Damping (<1)    DampMax         ....    0.9800
   Min. Damping (>=0)   DampMin         ....    0.0000
   Turn off err/grad.   DampErr         ....    0.1000
 Fernandez-Rico         CNVRico         .... off

SCF Procedure:
 Maximum # iterations   MaxIter         ....   125
 SCF integral mode      SCFMode         .... Direct
   Integral package                     .... LIBINT
 Reset frequency        DirectResetFreq ....    20
 Integral Threshold     Thresh          ....  1.000e-10 Eh
 Primitive CutOff       TCut            ....  1.000e-11 Eh

Convergence Tolerance:
 Convergence Check Mode ConvCheckMode   .... Total+1el-Energy
 Convergence forced     ConvForced      .... 0
 Energy Change          TolE            ....  1.000e-06 Eh
 1-El. energy change                    ....  1.000e-03 Eh
 DIIS Error             TolErr          ....  1.000e-06


Diagonalization of the overlap matrix:
Smallest eigenvalue                        ... 2.935e-03
Time for diagonalization                   ...    0.005 sec
Threshold for overlap eigenvalues          ... 1.000e-08
Number of eigenvalues below threshold      ... 0
Time for construction of square roots      ...    0.003 sec
Total time needed                          ...    0.009 sec

-------------------
DFT GRID GENERATION
-------------------

General Integration Accuracy     IntAcc      ...  4.670
Radial Grid Type                 RadialGrid  ... Gauss-Chebyshev
Angular Grid (max. acc.)         AngularGrid ... Lebedev-302
Angular grid pruning method      GridPruning ... 3 (G Style)
Weight generation scheme         WeightScheme... Becke
Basis function cutoff            BFCut       ...    1.0000e-10
Integration weight cutoff        WCut        ...    1.0000e-14
Grids for H and He will be reduced by one unit

# of grid points (after initial pruning)     ...  31974 (   0.0 sec)
# of grid points (after weights+screening)   ...  31838 (   0.0 sec)
nearest neighbour list constructed           ...    0.0 sec
Grid point re-assignment to atoms done       ...    0.0 sec
Grid point division into batches done        ...    0.3 sec
Reduced shell lists constructed in    0.3 sec

Total number of grid points                  ...    31838
Total number of batches                      ...      500
Average number of points per batch           ...       63
Average number of grid points per atom       ...    10613
Average number of shells per batch           ...     4.23 ( 8.81%)
Average number of basis functions per batch  ...     8.95 ( 5.33%)
Average number of large shells per batch     ...     2.82 (66.67%)
Average number of large basis fcns per batch ...     5.91 (65.99%)
Maximum spatial batch extension              ...  27.02, 24.03, 31.14 au
Average spatial batch extension              ...   0.75,  0.64,  0.72 au

Time for grid setup =    0.340 sec

------------------------------
INITIAL GUESS: MODEL POTENTIAL
------------------------------
Loading Hartree-Fock densities                     ... done
  calling /sw/apps/orca/orca_4_2_0_linux_x86-64_openmpi314/orca Ag03N0_D3H_atom47.inp > Ag03N0_D3H_atom47.out in order to generate an atomic fitting density for atom 0 (Ag with ECP) on-the-fly... 
    atom 0 (Ag), assumed electronic state with S=2: 1s2 2s2 2p6 3s2 3p6 4s2 3d10 4p6 5s2 4d9           ... done
Calculating cut-offs                               ... done
Setting up the integral package                    ... done
Initializing the effective Hamiltonian             ... done
Starting the Coulomb interaction                   ... done (   0.0 sec)
Reading the grid                                   ... done
Mapping shells                                     ... done
Starting the XC term evaluation                    ... done (   0.0 sec)
  promolecular density results
     # of electrons  =    141.001589608
     EX              =   -430.310478893
     EC              =     -7.472800308
     EX+EC           =   -437.783279201
Transforming the Hamiltonian                       ... done (   0.0 sec)
Diagonalizing the Hamiltonian                      ... done (   0.0 sec)
Back transforming the eigenvectors                 ... done (   0.0 sec)
Now organizing SCF variables                       ... done
                      ------------------
                      INITIAL GUESS DONE (   1.6 sec)
                      ------------------
--------------
SCF ITERATIONS
--------------
ITER       Energy         Delta-E        Max-DP      RMS-DP      [F,P]     Damp
               ***  Starting incremental Fock matrix formation  ***
  0   -440.5149809779   0.000000000000 0.10361451  0.00159144  0.5101243 0.7000
  1   -440.6676673398  -0.152686361907 0.08437001  0.00098660  0.3307119 0.7000
  2   -440.7144592193  -0.046791879569 0.04456643  0.00041255  0.2179923 0.7000
                               ***Turning on DIIS***
  3   -440.7463442728  -0.031885053446 0.01934726  0.00019630  0.1495773 0.7000
  4   -440.7704145939  -0.024070321091 0.01050477  0.00014961  0.1050290 0.7000
  5   -440.7873559062  -0.016941312288 0.02332528  0.00038771  0.0738125 0.0000
  6   -440.8268043576  -0.039448451387 0.00286194  0.00006041  0.0008693 0.0000
  7   -440.8268177054  -0.000013347815 0.00042701  0.00001062  0.0014392 0.0000
  8   -440.8268251790  -0.000007473632 0.00031292  0.00000645  0.0000818 0.0000
                 **** Energy Check signals convergence ****

               *****************************************************
               *                     SUCCESS                       *
               *           SCF CONVERGED AFTER   9 CYCLES          *
               *****************************************************


----------------
TOTAL SCF ENERGY
----------------

Total Energy       :         -440.82682565 Eh          -11995.50777 eV

Components:
Nuclear Repulsion  :          215.70357841 Eh            5869.59277 eV
Electronic Energy  :         -656.53040405 Eh          -17865.10054 eV
One Electron Energy:        -1214.30907828 Eh          -33043.02990 eV
Two Electron Energy:          557.77867423 Eh           15177.92936 eV

Virial components:
Potential Energy   :         -609.42978145 Eh          -16583.42744 eV
Kinetic Energy     :          168.60295580 Eh            4587.91967 eV
Virial Ratio       :            3.61458539


DFT components:
N(Alpha)           :       28.999984670752 electrons
N(Beta)            :       27.999983640026 electrons
N(Total)           :       56.999968310777 electrons
E(X)               :      -35.787408518287 Eh       
E(C)               :       -2.481231981348 Eh       
E(XC)              :      -38.268640499635 Eh       
DFET-embed. en.    :        0.000000000000 Eh       

---------------
SCF CONVERGENCE
---------------

  Last Energy change         ...   -4.6611e-07  Tolerance :   1.0000e-06
  Last MAX-Density change    ...    9.0305e-05  Tolerance :   1.0000e-05
  Last RMS-Density change    ...    1.6119e-06  Tolerance :   1.0000e-06
  Last DIIS Error            ...    5.7334e-05  Tolerance :   1.0000e-06

             **** THE GBW FILE WAS UPDATED (Ag03N0_D3H.gbw) ****
             **** DENSITY FILE WAS UPDATED (Ag03N0_D3H.scfp) ****
             **** ENERGY FILE WAS UPDATED (Ag03N0_D3H.en.tmp) ****
----------------------
UHF SPIN CONTAMINATION
----------------------

Warning: in a DFT calculation there is little theoretical justification to 
         calculate <S**2> as in Hartree-Fock theory. We will do it anyways
         but you should keep in mind that the values have only limited relevance

Expectation value of <S**2>     :     0.756541
Ideal value S*(S+1) for S=0.5   :     0.750000
Deviation                       :     0.006541

             **** THE GBW FILE WAS UPDATED (Ag03N0_D3H.gbw) ****
             **** DENSITY FILE WAS UPDATED (Ag03N0_D3H.scfp) ****
----------------
ORBITAL ENERGIES
----------------
                 SPIN UP ORBITALS
  NO   OCC          E(Eh)            E(eV) 
   0   1.0000      -3.677311      -100.0647 
   1   1.0000      -3.676979      -100.0557 
   2   1.0000      -3.659052       -99.5679 
   3   1.0000      -2.286492       -62.2186 
   4   1.0000      -2.282734       -62.1164 
   5   1.0000      -2.282099       -62.0991 
   6   1.0000      -2.281253       -62.0761 
   7   1.0000      -2.280855       -62.0652 
   8   1.0000      -2.280496       -62.0555 
   9   1.0000      -2.264819       -61.6289 
  10   1.0000      -2.264152       -61.6107 
  11   1.0000      -2.260991       -61.5247 
  12   1.0000      -0.352825        -9.6009 
  13   1.0000      -0.337098        -9.1729 
  14   1.0000      -0.329864        -8.9761 
  15   1.0000      -0.329350        -8.9621 
  16   1.0000      -0.315580        -8.5874 
  17   1.0000      -0.313870        -8.5408 
  18   1.0000      -0.308965        -8.4074 
  19   1.0000      -0.296087        -8.0569 
  20   1.0000      -0.292384        -7.9562 
  21   1.0000      -0.290489        -7.9046 
  22   1.0000      -0.283219        -7.7068 
  23   1.0000      -0.281131        -7.6500 
  24   1.0000      -0.278615        -7.5815 
  25   1.0000      -0.278313        -7.5733 
  26   1.0000      -0.266890        -7.2624 
  27   1.0000      -0.240076        -6.5328 
  28   1.0000      -0.132858        -3.6153 
  29   0.0000      -0.116133        -3.1601 
  30   0.0000      -0.046670        -1.2699 
  31   0.0000      -0.026979        -0.7341 
  32   0.0000      -0.010695        -0.2910 
  33   0.0000      -0.010390        -0.2827 
  34   0.0000       0.028851         0.7851 
  35   0.0000       0.029442         0.8011 
  36   0.0000       0.071648         1.9496 
  37   0.0000       0.073892         2.0107 
  38   0.0000       0.080763         2.1977 
  39   0.0000       0.107063         2.9133 
  40   0.0000       0.149116         4.0576 
  41   0.0000       0.156641         4.2624 
  42   0.0000       0.158032         4.3003 
  43   0.0000       0.159057         4.3282 
  44   0.0000       0.174915         4.7597 
  45   0.0000       0.175574         4.7776 
  46   0.0000       0.218575         5.9477 
  47   0.0000       0.221100         6.0164 
  48   0.0000       0.289468         7.8768 
  49   0.0000       0.348082         9.4718 
  50   0.0000       0.349090         9.4992 
  51   0.0000       0.350229         9.5302 
  52   0.0000       0.383509        10.4358 
  53   0.0000       0.386605        10.5201 
  54   0.0000       0.394645        10.7388 
  55   0.0000       0.486269        13.2321 
  56   0.0000       0.487900        13.2764 
  57   0.0000       0.528232        14.3739 
  58   0.0000       0.544966        14.8293 
  59   0.0000       0.581532        15.8243 
  60   0.0000       0.582630        15.8542 
  61   0.0000       0.586971        15.9723 
  62   0.0000       0.588034        16.0012 
  63   0.0000       0.667570        18.1655 
  64   0.0000       0.668101        18.1799 
  65   0.0000       0.719643        19.5825 
  66   0.0000       1.460297        39.7367 
  67   0.0000       1.463554        39.8253 
  68   0.0000       1.498352        40.7722 
  69   0.0000       1.509589        41.0780 
  70   0.0000       1.531142        41.6645 
  71   0.0000       1.540443        41.9176 
  72   0.0000       1.541437        41.9446 
  73   0.0000       1.558769        42.4163 
  74   0.0000       1.563573        42.5470 
  75   0.0000       1.565286        42.5936 
  76   0.0000       1.576662        42.9032 
  77   0.0000       1.579218        42.9727 
  78   0.0000       1.583682        43.0942 
  79   0.0000       1.587812        43.2066 
  80   0.0000       1.593133        43.3513 
  81   0.0000       1.602328        43.6016 
  82   0.0000       1.604759        43.6677 
  83   0.0000       1.607827        43.7512 
  84   0.0000       1.611914        43.8624 
  85   0.0000       1.622395        44.1476 
  86   0.0000       1.633348        44.4457 
  87   0.0000       1.666219        45.3401 
  88   0.0000       1.678246        45.6674 
  89   0.0000       1.684077        45.8261 
  90   0.0000       1.700429        46.2710 
  91   0.0000       1.710560        46.5467 
  92   0.0000       1.717340        46.7312 
  93   0.0000       1.740801        47.3696 
  94   0.0000       1.741891        47.3993 
  95   0.0000       1.897619        51.6368 
  96   0.0000       1.936101        52.6840 
  97   0.0000       2.027505        55.1712 
  98   0.0000       2.033437        55.3326 
  99   0.0000       2.041661        55.5564 
 100   0.0000       2.066860        56.2421 
 101   0.0000       2.072258        56.3890 
 102   0.0000       2.074035        56.4374 
 103   0.0000       2.086475        56.7759 
 104   0.0000       2.098978        57.1161 
 105   0.0000       2.099466        57.1294 
 106   0.0000       2.108350        57.3711 
 107   0.0000       2.119230        57.6672 
 108   0.0000       2.204454        59.9862 
 109   0.0000       2.210673        60.1555 
 110   0.0000       2.236587        60.8606 
 111   0.0000       2.353818        64.0506 
 112   0.0000       2.524965        68.7078 
 113   0.0000       2.530891        68.8690 
 114   0.0000       4.740041       128.9831 
 115   0.0000       4.753224       129.3418 
 116   0.0000       4.756867       129.4409 
 117   0.0000       4.761832       129.5760 
 118   0.0000       4.771171       129.8302 
 119   0.0000       4.771506       129.8393 
 120   0.0000       4.777780       130.0100 
 121   0.0000       4.789893       130.3396 
 122   0.0000       4.792190       130.4021 
 123   0.0000       4.796793       130.5274 
 124   0.0000       4.799114       130.5905 
 125   0.0000       4.813883       130.9924 
 126   0.0000       4.814509       131.0094 
 127   0.0000       4.850833       131.9979 
 128   0.0000       4.869049       132.4936 
 129   0.0000       4.873989       132.6280 
 130   0.0000       4.879076       132.7664 
 131   0.0000       4.879106       132.7672 
 132   0.0000       5.029748       136.8664 
 133   0.0000       5.034540       136.9968 
 134   0.0000       5.050612       137.4341 
 135   0.0000       5.554328       151.1409 
 136   0.0000       5.554376       151.1423 
 137   0.0000       5.554632       151.1492 
 138   0.0000       5.555319       151.1679 
 139   0.0000       5.555473       151.1721 
 140   0.0000       5.555736       151.1793 
 141   0.0000       5.556559       151.2017 
 142   0.0000       5.556726       151.2062 
 143   0.0000       5.557241       151.2202 
 144   0.0000       5.557633       151.2309 
 145   0.0000       5.558058       151.2424 
 146   0.0000       5.558650       151.2586 
 147   0.0000       5.559298       151.2762 
 148   0.0000       5.559302       151.2763 
 149   0.0000       5.559564       151.2834 
 150   0.0000       5.559624       151.2851 
 151   0.0000       5.562111       151.3527 
 152   0.0000       5.563827       151.3994 
 153   0.0000       5.574646       151.6938 
 154   0.0000       5.575808       151.7254 
 155   0.0000       5.576871       151.7544 
 156   0.0000       5.578729       151.8049 
 157   0.0000       5.578798       151.8068 
 158   0.0000       5.579121       151.8156 
 159   0.0000       5.579643       151.8298 
 160   0.0000       5.582581       151.9097 
 161   0.0000       5.582997       151.9211 
 162   0.0000      33.315054       906.5487 
 163   0.0000      33.646094       915.5568 
 164   0.0000      33.657847       915.8766 
 165   0.0000     110.742875      3013.4668 
 166   0.0000     110.845695      3016.2647 
 167   0.0000     110.857677      3016.5908 

                 SPIN DOWN ORBITALS
  NO   OCC          E(Eh)            E(eV) 
   0   1.0000      -3.677073      -100.0583 
   1   1.0000      -3.676743      -100.0493 
   2   1.0000      -3.658688       -99.5580 
   3   1.0000      -2.286159       -62.2095 
   4   1.0000      -2.282619       -62.1132 
   5   1.0000      -2.281730       -62.0890 
   6   1.0000      -2.280842       -62.0649 
   7   1.0000      -2.280685       -62.0606 
   8   1.0000      -2.280487       -62.0552 
   9   1.0000      -2.264762       -61.6273 
  10   1.0000      -2.263625       -61.5964 
  11   1.0000      -2.260653       -61.5155 
  12   1.0000      -0.351060        -9.5528 
  13   1.0000      -0.334756        -9.1092 
  14   1.0000      -0.328563        -8.9407 
  15   1.0000      -0.325854        -8.8669 
  16   1.0000      -0.313007        -8.5174 
  17   1.0000      -0.312094        -8.4925 
  18   1.0000      -0.306883        -8.3507 
  19   1.0000      -0.295041        -8.0285 
  20   1.0000      -0.291903        -7.9431 
  21   1.0000      -0.289440        -7.8761 
  22   1.0000      -0.279511        -7.6059 
  23   1.0000      -0.277682        -7.5561 
  24   1.0000      -0.274506        -7.4697 
  25   1.0000      -0.273848        -7.4518 
  26   1.0000      -0.262674        -7.1477 
  27   1.0000      -0.230160        -6.2630 
  28   0.0000      -0.108887        -2.9630 
  29   0.0000      -0.091196        -2.4816 
  30   0.0000      -0.039354        -1.0709 
  31   0.0000      -0.016073        -0.4374 
  32   0.0000       0.004366         0.1188 
  33   0.0000       0.005494         0.1495 
  34   0.0000       0.033080         0.9001 
  35   0.0000       0.043623         1.1870 
  36   0.0000       0.078591         2.1386 
  37   0.0000       0.088949         2.4204 
  38   0.0000       0.092690         2.5222 
  39   0.0000       0.111936         3.0459 
  40   0.0000       0.159564         4.3420 
  41   0.0000       0.162174         4.4130 
  42   0.0000       0.164258         4.4697 
  43   0.0000       0.171310         4.6616 
  44   0.0000       0.187873         5.1123 
  45   0.0000       0.188674         5.1341 
  46   0.0000       0.224691         6.1141 
  47   0.0000       0.238211         6.4821 
  48   0.0000       0.305299         8.3076 
  49   0.0000       0.357799         9.7362 
  50   0.0000       0.359817         9.7911 
  51   0.0000       0.366622         9.9763 
  52   0.0000       0.390634        10.6297 
  53   0.0000       0.397678        10.8214 
  54   0.0000       0.405078        11.0227 
  55   0.0000       0.496716        13.5163 
  56   0.0000       0.502101        13.6629 
  57   0.0000       0.539959        14.6930 
  58   0.0000       0.553295        15.0559 
  59   0.0000       0.587985        15.9999 
  60   0.0000       0.598117        16.2756 
  61   0.0000       0.599894        16.3240 
  62   0.0000       0.601171        16.3587 
  63   0.0000       0.674201        18.3459 
  64   0.0000       0.681607        18.5475 
  65   0.0000       0.733657        19.9638 
  66   0.0000       1.462356        39.7927 
  67   0.0000       1.467299        39.9272 
  68   0.0000       1.502309        40.8799 
  69   0.0000       1.512946        41.1694 
  70   0.0000       1.531951        41.6865 
  71   0.0000       1.544037        42.0154 
  72   0.0000       1.544792        42.0359 
  73   0.0000       1.561067        42.4788 
  74   0.0000       1.565950        42.6117 
  75   0.0000       1.566566        42.6284 
  76   0.0000       1.577799        42.9341 
  77   0.0000       1.580773        43.0150 
  78   0.0000       1.585495        43.1435 
  79   0.0000       1.591438        43.3052 
  80   0.0000       1.597202        43.4621 
  81   0.0000       1.607769        43.7496 
  82   0.0000       1.608106        43.7588 
  83   0.0000       1.613375        43.9022 
  84   0.0000       1.614226        43.9253 
  85   0.0000       1.628365        44.3101 
  86   0.0000       1.635750        44.5110 
  87   0.0000       1.671768        45.4911 
  88   0.0000       1.680039        45.7162 
  89   0.0000       1.687405        45.9166 
  90   0.0000       1.706500        46.4362 
  91   0.0000       1.712182        46.5908 
  92   0.0000       1.720357        46.8133 
  93   0.0000       1.744699        47.4757 
  94   0.0000       1.747787        47.5597 
  95   0.0000       1.899954        51.7004 
  96   0.0000       1.939768        52.7838 
  97   0.0000       2.030735        55.2591 
  98   0.0000       2.035805        55.3971 
  99   0.0000       2.045119        55.6505 
 100   0.0000       2.069187        56.3054 
 101   0.0000       2.074373        56.4465 
 102   0.0000       2.078771        56.5662 
 103   0.0000       2.089753        56.8651 
 104   0.0000       2.103484        57.2387 
 105   0.0000       2.103665        57.2436 
 106   0.0000       2.110290        57.4239 
 107   0.0000       2.124518        57.8111 
 108   0.0000       2.206216        60.0342 
 109   0.0000       2.214758        60.2666 
 110   0.0000       2.240410        60.9646 
 111   0.0000       2.354954        64.0816 
 112   0.0000       2.526250        68.7427 
 113   0.0000       2.534701        68.9727 
 114   0.0000       4.741188       129.0143 
 115   0.0000       4.754305       129.3712 
 116   0.0000       4.758174       129.4765 
 117   0.0000       4.762436       129.5925 
 118   0.0000       4.772380       129.8631 
 119   0.0000       4.772923       129.8778 
 120   0.0000       4.779150       130.0473 
 121   0.0000       4.790705       130.3617 
 122   0.0000       4.793058       130.4257 
 123   0.0000       4.797776       130.5541 
 124   0.0000       4.799819       130.6097 
 125   0.0000       4.816072       131.0520 
 126   0.0000       4.816496       131.0635 
 127   0.0000       4.852030       132.0304 
 128   0.0000       4.870222       132.5255 
 129   0.0000       4.875097       132.6581 
 130   0.0000       4.880522       132.8058 
 131   0.0000       4.880855       132.8148 
 132   0.0000       5.030463       136.8859 
 133   0.0000       5.035854       137.0325 
 134   0.0000       5.052061       137.4736 
 135   0.0000       5.554391       151.1427 
 136   0.0000       5.554763       151.1528 
 137   0.0000       5.554953       151.1580 
 138   0.0000       5.555368       151.1692 
 139   0.0000       5.555763       151.1800 
 140   0.0000       5.555837       151.1820 
 141   0.0000       5.556902       151.2110 
 142   0.0000       5.556995       151.2135 
 143   0.0000       5.557633       151.2309 
 144   0.0000       5.557700       151.2327 
 145   0.0000       5.558236       151.2473 
 146   0.0000       5.559008       151.2683 
 147   0.0000       5.559393       151.2788 
 148   0.0000       5.559558       151.2833 
 149   0.0000       5.559957       151.2941 
 150   0.0000       5.560208       151.3010 
 151   0.0000       5.562283       151.3574 
 152   0.0000       5.564551       151.4191 
 153   0.0000       5.575929       151.7287 
 154   0.0000       5.576640       151.7481 
 155   0.0000       5.577897       151.7823 
 156   0.0000       5.579083       151.8146 
 157   0.0000       5.579832       151.8349 
 158   0.0000       5.579846       151.8353 
 159   0.0000       5.579928       151.8376 
 160   0.0000       5.583449       151.9334 
 161   0.0000       5.584128       151.9519 
 162   0.0000      33.315204       906.5528 
 163   0.0000      33.646253       915.5611 
 164   0.0000      33.658023       915.8814 
 165   0.0000     110.742972      3013.4695 
 166   0.0000     110.845757      3016.2664 
 167   0.0000     110.857832      3016.5950 

                    ********************************
                    * MULLIKEN POPULATION ANALYSIS *
                    ********************************

--------------------------------------------
MULLIKEN ATOMIC CHARGES AND SPIN POPULATIONS
--------------------------------------------
   0 Ag:   -0.104956    0.572088
   1 Ag:    0.052484    0.213947
   2 Ag:    0.052472    0.213966
Sum of atomic charges         :   -0.0000000
Sum of atomic spin populations:    1.0000000

-----------------------------------------------------
MULLIKEN REDUCED ORBITAL CHARGES AND SPIN POPULATIONS
-----------------------------------------------------
CHARGE
  0 Ags       :     3.034304  s :     3.034304
      pz      :     2.012039  p :     6.183856
      px      :     2.010979
      py      :     2.160838
      dz2     :     1.986916  d :     9.885132
      dxz     :     1.994534
      dyz     :     1.987464
      dx2y2   :     1.981938
      dxy     :     1.934281
      f0      :     0.000145  f :     0.001643
      f+1     :     0.000101
      f-1     :     0.000267
      f+2     :     0.000079
      f-2     :     0.000186
      f+3     :     0.000518
      f-3     :     0.000346
      g0      :     0.000002  g :     0.000020
      g+1     :     0.000001
      g-1     :     0.000002
      g+2     :     0.000001
      g-2     :     0.000003
      g+3     :     0.000002
      g-3     :     0.000000
      g+4     :     0.000004
      g-4     :     0.000005
  1 Ags       :     2.808716  s :     2.808716
      pz      :     2.014539  p :     6.212959
      px      :     2.041483
      py      :     2.156936
      dz2     :     1.989477  d :     9.923952
      dxz     :     1.992468
      dyz     :     1.995271
      dx2y2   :     1.966337
      dxy     :     1.980399
      f0      :     0.000163  f :     0.001868
      f+1     :     0.000249
      f-1     :     0.000158
      f+2     :     0.000187
      f-2     :     0.000141
      f+3     :     0.000584
      f-3     :     0.000388
      g0      :     0.000002  g :     0.000020
      g+1     :     0.000002
      g-1     :     0.000001
      g+2     :     0.000002
      g-2     :     0.000002
      g+3     :     0.000002
      g-3     :     0.000000
      g+4     :     0.000005
      g-4     :     0.000005
  2 Ags       :     2.808729  s :     2.808729
      pz      :     2.014539  p :     6.212960
      px      :     2.041484
      py      :     2.156937
      dz2     :     1.989477  d :     9.923950
      dxz     :     1.992468
      dyz     :     1.995271
      dx2y2   :     1.966336
      dxy     :     1.980399
      f0      :     0.000163  f :     0.001868
      f+1     :     0.000249
      f-1     :     0.000158
      f+2     :     0.000187
      f-2     :     0.000141
      f+3     :     0.000584
      f-3     :     0.000388
      g0      :     0.000002  g :     0.000020
      g+1     :     0.000002
      g-1     :     0.000001
      g+2     :     0.000002
      g-2     :     0.000002
      g+3     :     0.000002
      g-3     :     0.000000
      g+4     :     0.000005
      g-4     :     0.000005

SPIN
  0 Ags       :     0.466189  s :     0.466189
      pz      :     0.000332  p :     0.094482
      px      :     0.001268
      py      :     0.092883
      dz2     :     0.001107  d :     0.011431
      dxz     :     0.000331
      dyz     :     0.000787
      dx2y2   :     0.002093
      dxy     :     0.007112
      f0      :    -0.000002  f :    -0.000015
      f+1     :    -0.000001
      f-1     :     0.000001
      f+2     :     0.000000
      f-2     :    -0.000001
      f+3     :    -0.000011
      f-3     :    -0.000002
      g0      :     0.000000  g :     0.000000
      g+1     :     0.000000
      g-1     :     0.000000
      g+2     :     0.000000
      g-2     :     0.000000
      g+3     :     0.000000
      g-3     :     0.000000
      g+4     :     0.000000
      g-4     :     0.000000
  1 Ags       :     0.084293  s :     0.084293
      pz      :    -0.000033  p :     0.124870
      px      :    -0.000300
      py      :     0.125203
      dz2     :     0.000484  d :     0.004778
      dxz     :    -0.000276
      dyz     :    -0.000413
      dx2y2   :     0.001542
      dxy     :     0.003440
      f0      :    -0.000001  f :     0.000006
      f+1     :    -0.000002
      f-1     :     0.000004
      f+2     :    -0.000001
      f-2     :    -0.000001
      f+3     :     0.000009
      f-3     :    -0.000003
      g0      :     0.000000  g :    -0.000000
      g+1     :     0.000000
      g-1     :     0.000000
      g+2     :    -0.000000
      g-2     :     0.000000
      g+3     :    -0.000000
      g-3     :    -0.000000
      g+4     :    -0.000000
      g-4     :    -0.000000
  2 Ags       :     0.084312  s :     0.084312
      pz      :    -0.000033  p :     0.124870
      px      :    -0.000300
      py      :     0.125203
      dz2     :     0.000484  d :     0.004778
      dxz     :    -0.000276
      dyz     :    -0.000413
      dx2y2   :     0.001542
      dxy     :     0.003440
      f0      :    -0.000001  f :     0.000006
      f+1     :    -0.000002
      f-1     :     0.000004
      f+2     :    -0.000001
      f-2     :    -0.000001
      f+3     :     0.000009
      f-3     :    -0.000003
      g0      :     0.000000  g :    -0.000000
      g+1     :     0.000000
      g-1     :     0.000000
      g+2     :    -0.000000
      g-2     :     0.000000
      g+3     :    -0.000000
      g-3     :    -0.000000
      g+4     :    -0.000000
      g-4     :    -0.000000


                     *******************************
                     * LOEWDIN POPULATION ANALYSIS *
                     *******************************

-------------------------------------------
LOEWDIN ATOMIC CHARGES AND SPIN POPULATIONS
-------------------------------------------
   0 Ag:   -0.078455    0.476726
   1 Ag:    0.039231    0.261631
   2 Ag:    0.039224    0.261643

----------------------------------------------------
LOEWDIN REDUCED ORBITAL CHARGES AND SPIN POPULATIONS
----------------------------------------------------
CHARGE
  0 Ags       :     2.807863  s :     2.807863
      pz      :     2.014586  p :     6.348567
      px      :     2.025054
      py      :     2.308927
      dz2     :     2.000089  d :     9.919586
      dxz     :     1.994306
      dyz     :     1.985101
      dx2y2   :     1.986617
      dxy     :     1.953474
      f0      :     0.000194  f :     0.002411
      f+1     :     0.000152
      f-1     :     0.000388
      f+2     :     0.000102
      f-2     :     0.000270
      f+3     :     0.000852
      f-3     :     0.000454
      g0      :     0.000002  g :     0.000027
      g+1     :     0.000001
      g-1     :     0.000003
      g+2     :     0.000002
      g-2     :     0.000004
      g+3     :     0.000003
      g-3     :     0.000000
      g+4     :     0.000005
      g-4     :     0.000008
  1 Ags       :     2.649539  s :     2.649539
      pz      :     2.016945  p :     6.352236
      px      :     2.098732
      py      :     2.236559
      dz2     :     1.999069  d :     9.956221
      dxz     :     1.990747
      dyz     :     1.994353
      dx2y2   :     1.982408
      dxy     :     1.989645
      f0      :     0.000218  f :     0.002745
      f+1     :     0.000306
      f-1     :     0.000231
      f+2     :     0.000260
      f-2     :     0.000186
      f+3     :     0.001032
      f-3     :     0.000511
      g0      :     0.000002  g :     0.000028
      g+1     :     0.000002
      g-1     :     0.000001
      g+2     :     0.000003
      g-2     :     0.000002
      g+3     :     0.000003
      g-3     :     0.000001
      g+4     :     0.000008
      g-4     :     0.000006
  2 Ags       :     2.649546  s :     2.649546
      pz      :     2.016945  p :     6.352237
      px      :     2.098733
      py      :     2.236559
      dz2     :     1.999069  d :     9.956220
      dxz     :     1.990747
      dyz     :     1.994353
      dx2y2   :     1.982407
      dxy     :     1.989644
      f0      :     0.000218  f :     0.002745
      f+1     :     0.000306
      f-1     :     0.000231
      f+2     :     0.000260
      f-2     :     0.000186
      f+3     :     0.001032
      f-3     :     0.000510
      g0      :     0.000002  g :     0.000028
      g+1     :     0.000002
      g-1     :     0.000001
      g+2     :     0.000003
      g-2     :     0.000002
      g+3     :     0.000003
      g-3     :     0.000001
      g+4     :     0.000008
      g-4     :     0.000006

SPIN
  0 Ags       :     0.310194  s :     0.310194
      pz      :     0.000456  p :     0.156269
      px      :     0.000574
      py      :     0.155240
      dz2     :     0.001918  d :     0.010208
      dxz     :    -0.000098
      dyz     :     0.000356
      dx2y2   :     0.003562
      dxy     :     0.004469
      f0      :     0.000001  f :     0.000055
      f+1     :    -0.000000
      f-1     :     0.000058
      f+2     :     0.000002
      f-2     :     0.000000
      f+3     :    -0.000005
      f-3     :    -0.000000
      g0      :     0.000000  g :     0.000001
      g+1     :     0.000000
      g-1     :     0.000000
      g+2     :     0.000000
      g-2     :     0.000000
      g+3     :    -0.000000
      g-3     :     0.000000
      g+4     :     0.000000
      g-4     :     0.000000
  1 Ags       :     0.061543  s :     0.061543
      pz      :     0.000159  p :     0.186907
      px      :     0.001669
      py      :     0.185080
      dz2     :     0.001155  d :     0.013017
      dxz     :    -0.000296
      dyz     :    -0.000228
      dx2y2   :     0.005585
      dxy     :     0.006801
      f0      :     0.000002  f :     0.000163
      f+1     :     0.000002
      f-1     :     0.000038
      f+2     :     0.000002
      f-2     :     0.000003
      f+3     :     0.000110
      f-3     :     0.000006
      g0      :     0.000000  g :     0.000001
      g+1     :     0.000000
      g-1     :     0.000000
      g+2     :     0.000000
      g-2     :     0.000000
      g+3     :     0.000000
      g-3     :    -0.000000
      g+4     :     0.000000
      g-4     :     0.000000
  2 Ags       :     0.061556  s :     0.061556
      pz      :     0.000159  p :     0.186907
      px      :     0.001668
      py      :     0.185080
      dz2     :     0.001156  d :     0.013017
      dxz     :    -0.000296
      dyz     :    -0.000228
      dx2y2   :     0.005584
      dxy     :     0.006801
      f0      :     0.000002  f :     0.000163
      f+1     :     0.000002
      f-1     :     0.000038
      f+2     :     0.000002
      f-2     :     0.000003
      f+3     :     0.000110
      f-3     :     0.000006
      g0      :     0.000000  g :     0.000001
      g+1     :     0.000000
      g-1     :     0.000000
      g+2     :     0.000000
      g-2     :     0.000000
      g+3     :     0.000000
      g-3     :    -0.000000
      g+4     :     0.000000
      g-4     :     0.000000


                      *****************************
                      * MAYER POPULATION ANALYSIS *
                      *****************************

  NA   - Mulliken gross atomic population
  ZA   - Total nuclear charge
  QA   - Mulliken gross atomic charge
  VA   - Mayer's total valence
  BVA  - Mayer's bonded valence
  FA   - Mayer's free valence

  ATOM       NA         ZA         QA         VA         BVA        FA
  0 Ag    19.1050    19.0000    -0.1050     1.4909     1.1592     0.3317
  1 Ag    18.9475    19.0000     0.0525     1.3998     1.3333     0.0665
  2 Ag    18.9475    19.0000     0.0525     1.3998     1.3333     0.0665

  Mayer bond orders larger than 0.100000
B(  0-Ag,  1-Ag) :   0.5796 B(  0-Ag,  2-Ag) :   0.5796 B(  1-Ag,  2-Ag) :   0.7537 


-------
TIMINGS
-------

Total SCF time: 0 days 0 hours 0 min 5 sec 

Total time                  ....       5.724 sec
Sum of individual times     ....       5.505 sec  ( 96.2%)

Fock matrix formation       ....       3.773 sec  ( 65.9%)
  XC integration            ....       0.674 sec  ( 17.9% of F)
    Basis function eval.    ....       0.033 sec  (  5.0% of XC)
    Density eval.           ....       0.085 sec  ( 12.7% of XC)
    XC-Functional eval.     ....       0.025 sec  (  3.7% of XC)
    XC-Potential eval.      ....       0.193 sec  ( 28.6% of XC)
Diagonalization             ....       0.071 sec  (  1.2%)
Density matrix formation    ....       0.013 sec  (  0.2%)
Population analysis         ....       0.009 sec  (  0.2%)
Initial guess               ....       1.279 sec  ( 22.3%)
Orbital Transformation      ....       0.000 sec  (  0.0%)
Orbital Orthonormalization  ....       0.000 sec  (  0.0%)
DIIS solution               ....       0.022 sec  (  0.4%)
Grid generation             ....       0.340 sec  (  5.9%)


-------------------------------------------------------------------------------
                          DFT DISPERSION CORRECTION                            
                                                                               
                              DFTD3 V3.1  Rev 1                                
                          USING Becke-Johnson damping                          
-------------------------------------------------------------------------------
The TPSSH functional is recognized
Active option DFTDOPT                   ...         4   

molecular C6(AA) [au] = 2417.548083 


            DFT-D V3
 parameters
 s6 scaling factor         :     1.0000 
 a1 scaling factor         :     0.4529 
 s8 scaling factor         :     2.2382 
 a2 scaling factor         :     4.6550 
 ad hoc parameters k1-k3   :    16.0000     1.3333    -4.0000 

 Edisp/kcal,au: -3.444837375118  -0.005489697208 
 E6   /kcal   :  -0.970128757 
 E8   /kcal   :  -2.474708618 
 % E8         :  71.838184175 

-------------------------   ----------------
Dispersion correction           -0.005489697
-------------------------   ----------------


-------------------------   --------------------
FINAL SINGLE POINT ENERGY      -440.832315342327
-------------------------   --------------------


                            ***************************************
                            *     ORCA property calculations      *
                            ***************************************

                                    ---------------------
                                    Active property flags
                                    ---------------------
   (+) Dipole Moment


------------------------------------------------------------------------------
                       ORCA ELECTRIC PROPERTIES CALCULATION
------------------------------------------------------------------------------

Dipole Moment Calculation                       ... on
Quadrupole Moment Calculation                   ... off
Polarizability Calculation                      ... off
GBWName                                         ... Ag03N0_D3H.gbw
Electron density file                           ... Ag03N0_D3H.scfp
The origin for moment calculation is the CENTER OF MASS  = ( 0.000000, -0.000001  0.000000)

-------------
DIPOLE MOMENT
-------------
                                X             Y             Z
Electronic contribution:      0.00002      -0.46606      -0.00000
Nuclear contribution   :      0.00000       0.00000       0.00000
                        -----------------------------------------
Total Dipole Moment    :      0.00002      -0.46606      -0.00000
                        -----------------------------------------
Magnitude (a.u.)       :      0.46606
Magnitude (Debye)      :      1.18463



--------------------
Rotational spectrum 
--------------------
 
Rotational constants in cm-1:     0.044277     0.044277     0.022139 
Rotational constants in MHz :  1327.402110  1327.401756   663.700966 

 Dipole components along the rotational axes: 
x,y,z [a.u.] :     0.000020    -0.466060    -0.000000 
x,y,z [Debye]:     0.000052    -1.184631    -0.000000 

 

Timings for individual modules:

Sum of individual times         ...        7.075 sec (=   0.118 min)
GTO integral calculation        ...        1.005 sec (=   0.017 min)  14.2 %
SCF iterations                  ...        6.071 sec (=   0.101 min)  85.8 %
                             ****ORCA TERMINATED NORMALLY****
TOTAL RUN TIME: 0 days 0 hours 0 minutes 7 seconds 561 msec
