
                                 *****************
                                 * O   R   C   A *
                                 *****************

           --- An Ab Initio, DFT and Semiempirical electronic structure package ---

                  #######################################################
                  #                        -***-                        #
                  #          Department of theory and spectroscopy      #
                  #               Directorship: Frank Neese             #
                  #        Max Planck Institute fuer Kohlenforschung    #
                  #                Kaiser Wilhelm Platz 1               #
                  #                 D-45470 Muelheim/Ruhr               #
                  #                      Germany                        #
                  #                                                     #
                  #                  All rights reserved                #
                  #                        -***-                        #
                  #######################################################


                         Program Version 4.2.0 -  RELEASE  -


 With contributions from (in alphabetic order):
   Daniel Aravena         : Magnetic Suceptibility
   Michael Atanasov       : Ab Initio Ligand Field Theory (pilot matlab implementation)
   Alexander A. Auer      : GIAO ZORA, VPT2
   Ute Becker             : Parallelization
   Giovanni Bistoni       : ED, misc. LED, open-shell LED, HFLED
   Martin Brehm           : Molecular dynamics
   Dmytro Bykov           : SCF Hessian
   Vijay G. Chilkuri      : MRCI spin determinant printing, contributions to CSF-ICE
   Dipayan Datta          : RHF DLPNO-CCSD density
   Achintya Kumar Dutta   : EOM-CC, STEOM-CC
   Dmitry Ganyushin       : Spin-Orbit,Spin-Spin,Magnetic field MRCI
   Miquel Garcia          : C-PCM Hessian, Gaussian charge scheme
   Yang Guo               : DLPNO-NEVPT2, CIM, IAO-localization
   Andreas Hansen         : Spin unrestricted coupled pair/coupled cluster methods
   Benjamin Helmich-Paris : CASSCF linear response (MC-RPA)
   Lee Huntington         : MR-EOM, pCC
   Robert Izsak           : Overlap fitted RIJCOSX, COSX-SCS-MP3, EOM
   Christian Kollmar      : KDIIS, OOCD, Brueckner-CCSD(T), CCSD density
   Simone Kossmann        : Meta GGA functionals, TD-DFT gradient, OOMP2, MP2 Hessian
   Martin Krupicka        : AUTO-CI
   Lucas Lang             : DCDCAS
   Dagmar Lenk            : GEPOL surface, SMD
   Dimitrios Liakos       : Extrapolation schemes; Compound Job, initial MDCI parallelization
   Dimitrios Manganas     : Further ROCIS development; embedding schemes
   Dimitrios Pantazis     : SARC Basis sets
   Taras Petrenko         : DFT Hessian,TD-DFT gradient, ASA, ECA, R-Raman, ABS, FL, XAS/XES, NRVS
   Peter Pinski           : DLPNO-MP2, DLPNO-MP2 Gradient
   Christoph Reimann      : Effective Core Potentials
   Marius Retegan         : Local ZFS, SOC
   Christoph Riplinger    : Optimizer, TS searches, QM/MM, DLPNO-CCSD(T), (RO)-DLPNO pert. Triples
   Tobias Risthaus        : Range-separated hybrids, TD-DFT gradient, RPA, STAB
   Michael Roemelt        : Original ROCIS implementation
   Masaaki Saitow         : Open-shell DLPNO-CCSD energy and density
   Barbara Sandhoefer     : DKH picture change effects
   Avijit Sen             : IP-ROCIS
   Kantharuban Sivalingam : CASSCF convergence, NEVPT2, FIC-MRCI
   Bernardo de Souza      : ESD, SOC TD-DFT
   Georgi Stoychev        : AutoAux, RI-MP2 NMR
   Willem Van den Heuvel  : Paramagnetic NMR
   Boris Wezisla          : Elementary symmetry handling
   Frank Wennmohs         : Technical directorship


 We gratefully acknowledge several colleagues who have allowed us to
 interface, adapt or use parts of their codes:
   Stefan Grimme, W. Hujo, H. Kruse,             : VdW corrections, initial TS optimization,
                  C. Bannwarth                     DFT functionals, gCP, sTDA/sTD-DF
   Ed Valeev, F. Pavosevic, A. Kumar             : LibInt (2-el integral package), F12 methods
   Garnet Chan, S. Sharma, J. Yang, R. Olivares  : DMRG
   Ulf Ekstrom                                   : XCFun DFT Library
   Mihaly Kallay                                 : mrcc  (arbitrary order and MRCC methods)
   Andreas Klamt, Michael Diedenhofen            : otool_cosmo (COSMO solvation model)
   Jiri Pittner, Ondrej Demel                    : Mk-CCSD
   Frank Weinhold                                : gennbo (NPA and NBO analysis)
   Christopher J. Cramer and Donald G. Truhlar   : smd solvation model
   Lars Goerigk                                  : TD-DFT with DH, B97 family of functionals
   V. Asgeirsson, H. Jonsson                     : NEB implementation
   FAccTs GmbH                                   : IRC, NEB, NEB-TS, Multilevel, MM, QM/MM, CI optimization
   S Lehtola, MJT Oliveira, MAL Marques          : LibXC Library


 Your calculation uses the libint2 library for the computation of 2-el integrals
 For citations please refer to: http://libint.valeyev.net

 Your ORCA version has been built with support for libXC version: 4.2.3
 For citations please refer to: https://tddft.org/programs/libxc/

 This ORCA versions uses:
   CBLAS   interface :  Fast vector & matrix operations
   LAPACKE interface :  Fast linear algebra routines
   SCALAPACK package :  Parallel linear algebra routines


Your calculation utilizes the atom-pairwise dispersion correction
with the Becke-Johnson damping scheme (D3BJ)
Cite in your paper:
S.Grimme, S.Ehrlich, L.Goerigk, J Comput Chem, (2011), 32, 1456–1465 
S.Grimme, J.Antony, S.Ehrlich and H.Krieg, J.Chem.Phys., 132, (2010), 154104 
   

----- Orbital basis set information -----
Your calculation utilizes the basis: def2-TZVPPD
   F. Weigend and R. Ahlrichs, Phys. Chem. Chem. Phys. 7, 3297 (2005).
   D. Rappoport and F. Furche, J. Chem. Phys. 133 134105 (2010).

----- AuxJK basis set information -----
Your calculation utilizes the auxiliary basis: def2/JK
   H-Ba, Hf-Rn: F. Weigend, J. Comput. Chem. 29, 167 (2008).

cite the ECPs for Ag [Def2-ECP] as follows:
Ce-Yb(ecp-28): M. Dolg, H. Stoll, H.Preuss, J. Chem. Phys., 1989, 90, 1730-1734.
Y-Cd(ecp-28), Hf-Hg(ecp-46): D. Andrae,U. Haeussermann, M. Dolg, H. Stoll, H. Preuss, Theor. Chim. Acta, 1990, 77, 123-141.
In-Sb(ecp-28), Tl-Bi(ecp-46): B. Metz, H. Stoll, M. Dolg, J. Chem. Phys., 2000, 113, 2563-2569.
Te-Xe(ecp-28), Po-Rn(ecp-46): K. A. Peterson, D. Figgen, E. Goll, H. Stoll, M. Dolg, J. Chem. Phys., 2003, 119, 11113-11123.
Rb(ecp-28), Cs(ecp-46): T. Leininger, A. Nicklass, W. Kuechle, H. Stoll, M. Dolg, A. Bergner, Chem. Phys. Lett., 1996, 255, 274-280.
Sr(ecp-28), Ba(ecp-46): M. Kaupp, P. V. Schleyer, H. Stoll and H. Preuss, J. Chem. Phys., 1991, 94, 1360-1366.
La(ecp-46): M. Dolg, H. Stoll, A. Savin, H. Preuss, Theor. Chim. Acta, 1989, 75, 173-194.
Lu(ecp-28): X. Cao, M. Dolg, J. Chem. Phys., 2001, 115, 7348-7355.

ECP parameters for Ag [Def2-ECP] have been obtained from:
TURBOMOLE (7.0.2)

================================================================================
                                        WARNINGS
                       Please study these warnings very carefully!
================================================================================


INFO   : the flag for use of LIBINT has been found!

================================================================================
                                       INPUT FILE
================================================================================
NAME = Ag04N0.in
|  1> #
|  2> # Ag04N0 TPSSh-D3BJ/Def2-TZVPPD
|  3> #
|  4> ! tpssh d3bj def2-tzvppd def2/jk grid4 nofinalgrid
|  5> 
|  6> *xyz 0 1
|  7> Ag      -1.015022   -0.433109    0.700282 
|  8> Ag       0.974659   -2.209777    0.043294 
|  9> Ag       1.013798    0.433158   -0.699441 
| 10> Ag      -0.973435    2.209727   -0.044135 
| 11> *
| 12> 
| 13> %maxcore 5000
| 14> 
| 15> %pal
| 16> nprocs = 24
| 17> end
| 18> 
| 19> 
| 20>                          ****END OF INPUT****
================================================================================

                       ****************************
                       * Single Point Calculation *
                       ****************************

---------------------------------
CARTESIAN COORDINATES (ANGSTROEM)
---------------------------------
  Ag    -1.015022   -0.433109    0.700282
  Ag     0.974659   -2.209777    0.043294
  Ag     1.013798    0.433158   -0.699441
  Ag    -0.973435    2.209727   -0.044135

----------------------------
CARTESIAN COORDINATES (A.U.)
----------------------------
  NO LB      ZA    FRAG     MASS         X           Y           Z
   0 Ag   19.0000*   0   107.870   -1.918114   -0.818457    1.323341
   1 Ag   19.0000*   0   107.870    1.841839   -4.175873    0.081814
   2 Ag   19.0000*   0   107.870    1.915801    0.818550   -1.321752
   3 Ag   19.0000*   0   107.870   -1.839526    4.175779   -0.083403
* core charge reduced due to ECP

--------------------------------
INTERNAL COORDINATES (ANGSTROEM)
--------------------------------
 Ag     0   0   0     0.000000000000     0.00000000     0.00000000
 Ag     1   0   0     2.747182719829     0.00000000     0.00000000
 Ag     1   2   0     2.612614319875    61.56800028     0.00000000
 Ag     3   1   2     2.744944145458    61.60842682   179.99389243

---------------------------
INTERNAL COORDINATES (A.U.)
---------------------------
 Ag     0   0   0     0.000000000000     0.00000000     0.00000000
 Ag     1   0   0     5.191422980318     0.00000000     0.00000000
 Ag     1   2   0     4.937125558125    61.56800028     0.00000000
 Ag     3   1   2     5.187192687827    61.60842682   179.99389243

---------------------
BASIS SET INFORMATION
---------------------
There are 1 groups of distinct atoms

 Group   1 Type Ag  : 7s7p6d2f1g contracted to 6s4p3d2f1g pattern {211111/4111/411/11/1}

Atom   0Ag   basis set group =>   1
Atom   1Ag   basis set group =>   1
Atom   2Ag   basis set group =>   1
Atom   3Ag   basis set group =>   1
----------------------------------
AUXILIARY/JK BASIS SET INFORMATION
----------------------------------
There are 1 groups of distinct atoms

 Group   1 Type Ag  : 13s12p10d9f6g3h2i contracted to 11s10p9d8f6g3h2i pattern {31111111111/3111111111/211111111/21111111/111111/111/11}

Atom   0Ag   basis set group =>   1
Atom   1Ag   basis set group =>   1
Atom   2Ag   basis set group =>   1
Atom   3Ag   basis set group =>   1
-------------------------
ECP PARAMETER INFORMATION
-------------------------

 Group 1, Type Ag ECP Def2-ECP (replacing 28 core electrons, lmax=3)

Atom   0Ag   ECP group =>   1
Atom   1Ag   ECP group =>   1
Atom   2Ag   ECP group =>   1
Atom   3Ag   ECP group =>   1



           ************************************************************
           *        Program running with 24 parallel MPI-processes    *
           *              working on a common directory               *
           ************************************************************
------------------------------------------------------------------------------
                           ORCA GTO INTEGRAL CALCULATION
------------------------------------------------------------------------------

                         BASIS SET STATISTICS AND STARTUP INFO

 # of primitive gaussian shells          ...   92
 # of primitive gaussian functions       ...  324
 # of contracted shells                  ...   64
 # of contracted basis functions         ...  224
 Highest angular momentum                ...    4
 Maximum contraction depth               ...    4
 Integral package used                   ... LIBINT
 Integral threshhold            Thresh   ...  1.000e-10
 Primitive cut-off              TCut     ...  1.000e-11


------------------------------ INTEGRAL EVALUATION ----------------------------


 * One electron integrals 

   ECP integrals                         ... done
 Pre-screening matrix                    ... done
 Shell pair data                         ... done (   0.000 sec)



           ************************************************************
           *        Program running with 24 parallel MPI-processes    *
           *              working on a common directory               *
           ************************************************************
-------------------------------------------------------------------------------
                                 ORCA SCF
-------------------------------------------------------------------------------

------------
SCF SETTINGS
------------
Hamiltonian:
 Density Functional     Method          .... DFT(GTOs)
 Exchange Functional    Exchange        .... TPSS
 Correlation Functional Correlation     .... TPSS
 LDA part of GGA corr.  LDAOpt          .... PW91-LDA
 Gradients option       PostSCFGGA      .... off
 Hybrid DFT is turned on
   Fraction HF Exchange ScalHFX         ....  0.100000
   Scaling of DF-GGA-X  ScalDFX         ....  0.900000
   Scaling of DF-GGA-C  ScalDFC         ....  1.000000
   Scaling of DF-LDA-C  ScalLDAC        ....  1.000000
   Perturbative correction              ....  0.000000
   Density functional embedding theory  .... OFF
   NL short-range parameter             ....  5.200000


General Settings:
 Integral files         IntName         .... Ag04N0
 Hartree-Fock type      HFTyp           .... RHF
 Total Charge           Charge          ....    0
 Multiplicity           Mult            ....    1
 Number of Electrons    NEL             ....   76
 Basis Dimension        Dim             ....  224
 Nuclear Repulsion      ENuc            ....    390.9440555712 Eh

Convergence Acceleration:
 DIIS                   CNVDIIS         .... on
   Start iteration      DIISMaxIt       ....    12
   Startup error        DIISStart       ....  0.200000
   # of expansion vecs  DIISMaxEq       ....     5
   Bias factor          DIISBfac        ....   1.050
   Max. coefficient     DIISMaxC        ....  10.000
 Newton-Raphson         CNVNR           .... off
 SOSCF                  CNVSOSCF        .... off
 Level Shifting         CNVShift        .... on
   Level shift para.    LevelShift      ....    0.2500
   Turn off err/grad.   ShiftErr        ....    0.0010
 Zerner damping         CNVZerner       .... off
 Static damping         CNVDamp         .... on
   Fraction old density DampFac         ....    0.7000
   Max. Damping (<1)    DampMax         ....    0.9800
   Min. Damping (>=0)   DampMin         ....    0.0000
   Turn off err/grad.   DampErr         ....    0.1000
 Fernandez-Rico         CNVRico         .... off

SCF Procedure:
 Maximum # iterations   MaxIter         ....   125
 SCF integral mode      SCFMode         .... Direct
   Integral package                     .... LIBINT
 Reset frequency        DirectResetFreq ....    20
 Integral Threshold     Thresh          ....  1.000e-10 Eh
 Primitive CutOff       TCut            ....  1.000e-11 Eh

Convergence Tolerance:
 Convergence Check Mode ConvCheckMode   .... Total+1el-Energy
 Convergence forced     ConvForced      .... 0
 Energy Change          TolE            ....  1.000e-06 Eh
 1-El. energy change                    ....  1.000e-03 Eh
 DIIS Error             TolErr          ....  1.000e-06


Diagonalization of the overlap matrix:
Smallest eigenvalue                        ... 2.397e-03
Time for diagonalization                   ...    0.009 sec
Threshold for overlap eigenvalues          ... 1.000e-08
Number of eigenvalues below threshold      ... 0
Time for construction of square roots      ...    0.006 sec
Total time needed                          ...    0.016 sec

-------------------
DFT GRID GENERATION
-------------------

General Integration Accuracy     IntAcc      ...  4.670
Radial Grid Type                 RadialGrid  ... Gauss-Chebyshev
Angular Grid (max. acc.)         AngularGrid ... Lebedev-302
Angular grid pruning method      GridPruning ... 3 (G Style)
Weight generation scheme         WeightScheme... Becke
Basis function cutoff            BFCut       ...    1.0000e-10
Integration weight cutoff        WCut        ...    1.0000e-14
Grids for H and He will be reduced by one unit

# of grid points (after initial pruning)     ...  42632 (   0.0 sec)
# of grid points (after weights+screening)   ...  42194 (   0.0 sec)
nearest neighbour list constructed           ...    0.0 sec
Grid point re-assignment to atoms done       ...    0.0 sec
Grid point division into batches done        ...    0.3 sec
Reduced shell lists constructed in    0.3 sec

Total number of grid points                  ...    42194
Total number of batches                      ...      662
Average number of points per batch           ...       63
Average number of grid points per atom       ...    10548
Average number of shells per batch           ...    11.69 (18.27%)
Average number of basis functions per batch  ...    28.79 (12.85%)
Average number of large shells per batch     ...     7.52 (64.31%)
Average number of large basis fcns per batch ...    17.10 (59.40%)
Maximum spatial batch extension              ...  24.21, 24.92, 26.73 au
Average spatial batch extension              ...   0.47,  0.46,  0.50 au

Time for grid setup =    0.409 sec

------------------------------
INITIAL GUESS: MODEL POTENTIAL
------------------------------
Loading Hartree-Fock densities                     ... done
  calling /sw/apps/orca/orca_4_2_0_linux_x86-64_openmpi314/orca Ag04N0_atom47.inp > Ag04N0_atom47.out in order to generate an atomic fitting density for atom 0 (Ag with ECP) on-the-fly... 
    atom 0 (Ag), assumed electronic state with S=2: 1s2 2s2 2p6 3s2 3p6 4s2 3d10 4p6 5s2 4d9           ... done
Calculating cut-offs                               ... done
Setting up the integral package                    ... done
Initializing the effective Hamiltonian             ... done
Starting the Coulomb interaction                   ... done (   0.0 sec)
Reading the grid                                   ... done
Mapping shells                                     ... done
Starting the XC term evaluation                    ... done (   0.0 sec)
  promolecular density results
     # of electrons  =    188.002003962
     EX              =   -573.766842222
     EC              =     -9.971221332
     EX+EC           =   -583.738063554
Transforming the Hamiltonian                       ... done (   0.0 sec)
Diagonalizing the Hamiltonian                      ... done (   0.0 sec)
Back transforming the eigenvectors                 ... done (   0.0 sec)
Now organizing SCF variables                       ... done
                      ------------------
                      INITIAL GUESS DONE (   1.7 sec)
                      ------------------
--------------
SCF ITERATIONS
--------------
ITER       Energy         Delta-E        Max-DP      RMS-DP      [F,P]     Damp
               ***  Starting incremental Fock matrix formation  ***
  0   -587.4014139817   0.000000000000 0.12404607  0.00275101  0.5101411 0.7000
  1   -587.6046329082  -0.203218926508 0.08481119  0.00170512  0.3314320 0.7000
  2   -587.6661000875  -0.061467179281 0.04636146  0.00066934  0.2189195 0.7000
                               ***Turning on DIIS***
  3   -587.7080769140  -0.041976826555 0.02195853  0.00028498  0.1504774 0.7000
  4   -587.7398905871  -0.031813673103 0.01264227  0.00022857  0.1057921 0.7000
  5   -587.7622782876  -0.022387700521 0.02886886  0.00060845  0.0742267 0.0000
  6   -587.8143249750  -0.052046687323 0.00285375  0.00009561  0.0007989 0.0000
  7   -587.8143342965  -0.000009321567 0.00068427  0.00001856  0.0012697 0.0000
  8   -587.8143440992  -0.000009802717 0.00093198  0.00001113  0.0001125 0.0000
  9   -587.8143442584  -0.000000159117 0.00012796  0.00000166  0.0000394 0.0000
                 **** Energy Check signals convergence ****

               *****************************************************
               *                     SUCCESS                       *
               *           SCF CONVERGED AFTER  10 CYCLES          *
               *****************************************************


----------------
TOTAL SCF ENERGY
----------------

Total Energy       :         -587.81434426 Eh          -15995.24149 eV

Components:
Nuclear Repulsion  :          390.94405557 Eh           10638.12858 eV
Electronic Energy  :         -978.75839984 Eh          -26633.37007 eV
One Electron Energy:        -1826.12049711 Eh          -49691.26498 eV
Two Electron Energy:          847.36209728 Eh           23057.89491 eV

Virial components:
Potential Energy   :         -812.52719959 Eh          -22109.98915 eV
Kinetic Energy     :          224.71285533 Eh            6114.74766 eV
Virial Ratio       :            3.61584654


DFT components:
N(Alpha)           :       38.000017161008 electrons
N(Beta)            :       38.000017161008 electrons
N(Total)           :       76.000034322017 electrons
E(X)               :      -47.709077587480 Eh       
E(C)               :       -3.321550792379 Eh       
E(XC)              :      -51.030628379859 Eh       
DFET-embed. en.    :        0.000000000000 Eh       

---------------
SCF CONVERGENCE
---------------

  Last Energy change         ...   -6.5584e-09  Tolerance :   1.0000e-06
  Last MAX-Density change    ...    4.9021e-05  Tolerance :   1.0000e-05
  Last RMS-Density change    ...    7.4975e-07  Tolerance :   1.0000e-06
  Last DIIS Error            ...    3.0418e-05  Tolerance :   1.0000e-06

             **** THE GBW FILE WAS UPDATED (Ag04N0.gbw) ****
             **** DENSITY FILE WAS UPDATED (Ag04N0.scfp) ****
             **** ENERGY FILE WAS UPDATED (Ag04N0.en.tmp) ****
             **** THE GBW FILE WAS UPDATED (Ag04N0.gbw) ****
             **** DENSITY FILE WAS UPDATED (Ag04N0.scfp) ****
----------------
ORBITAL ENERGIES
----------------

  NO   OCC          E(Eh)            E(eV) 
   0   2.0000      -3.679499      -100.1243 
   1   2.0000      -3.679084      -100.1130 
   2   2.0000      -3.655009       -99.4578 
   3   2.0000      -3.654957       -99.4564 
   4   2.0000      -2.289056       -62.2884 
   5   2.0000      -2.284182       -62.1557 
   6   2.0000      -2.283824       -62.1460 
   7   2.0000      -2.283268       -62.1309 
   8   2.0000      -2.283083       -62.1258 
   9   2.0000      -2.282651       -62.1141 
  10   2.0000      -2.261392       -61.5356 
  11   2.0000      -2.261244       -61.5316 
  12   2.0000      -2.259592       -61.4866 
  13   2.0000      -2.259513       -61.4845 
  14   2.0000      -2.257226       -61.4222 
  15   2.0000      -2.257178       -61.4209 
  16   2.0000      -0.349870        -9.5205 
  17   2.0000      -0.349448        -9.5090 
  18   2.0000      -0.330984        -9.0065 
  19   2.0000      -0.328445        -8.9374 
  20   2.0000      -0.325635        -8.8610 
  21   2.0000      -0.320027        -8.7084 
  22   2.0000      -0.308712        -8.4005 
  23   2.0000      -0.306879        -8.3506 
  24   2.0000      -0.293031        -7.9738 
  25   2.0000      -0.292044        -7.9469 
  26   2.0000      -0.287669        -7.8279 
  27   2.0000      -0.282143        -7.6775 
  28   2.0000      -0.281645        -7.6639 
  29   2.0000      -0.281082        -7.6486 
  30   2.0000      -0.276676        -7.5288 
  31   2.0000      -0.276062        -7.5120 
  32   2.0000      -0.275085        -7.4854 
  33   2.0000      -0.273123        -7.4321 
  34   2.0000      -0.270489        -7.3604 
  35   2.0000      -0.260824        -7.0974 
  36   2.0000      -0.243389        -6.6229 
  37   2.0000      -0.164873        -4.4864 
  38   0.0000      -0.112889        -3.0719 
  39   0.0000      -0.071236        -1.9384 
  40   0.0000      -0.049121        -1.3366 
  41   0.0000      -0.022865        -0.6222 
  42   0.0000      -0.017911        -0.4874 
  43   0.0000      -0.000296        -0.0081 
  44   0.0000       0.009157         0.2492 
  45   0.0000       0.033372         0.9081 
  46   0.0000       0.049765         1.3542 
  47   0.0000       0.062348         1.6966 
  48   0.0000       0.075183         2.0458 
  49   0.0000       0.090351         2.4586 
  50   0.0000       0.091023         2.4769 
  51   0.0000       0.108015         2.9392 
  52   0.0000       0.115987         3.1562 
  53   0.0000       0.142210         3.8697 
  54   0.0000       0.154834         4.2132 
  55   0.0000       0.158967         4.3257 
  56   0.0000       0.160710         4.3731 
  57   0.0000       0.171762         4.6739 
  58   0.0000       0.173669         4.7258 
  59   0.0000       0.178304         4.8519 
  60   0.0000       0.204675         5.5695 
  61   0.0000       0.222486         6.0541 
  62   0.0000       0.234526         6.3818 
  63   0.0000       0.246737         6.7140 
  64   0.0000       0.306783         8.3480 
  65   0.0000       0.337335         9.1794 
  66   0.0000       0.356819         9.7095 
  67   0.0000       0.367546        10.0014 
  68   0.0000       0.375792        10.2258 
  69   0.0000       0.390560        10.6277 
  70   0.0000       0.397810        10.8250 
  71   0.0000       0.440109        11.9760 
  72   0.0000       0.450222        12.2512 
  73   0.0000       0.458878        12.4867 
  74   0.0000       0.533409        14.5148 
  75   0.0000       0.550486        14.9795 
  76   0.0000       0.554185        15.0801 
  77   0.0000       0.554509        15.0890 
  78   0.0000       0.586184        15.9509 
  79   0.0000       0.587498        15.9866 
  80   0.0000       0.596719        16.2376 
  81   0.0000       0.628965        17.1150 
  82   0.0000       0.644070        17.5260 
  83   0.0000       0.655479        17.8365 
  84   0.0000       0.672291        18.2940 
  85   0.0000       0.679654        18.4943 
  86   0.0000       0.737808        20.0768 
  87   0.0000       0.788796        21.4642 
  88   0.0000       1.447866        39.3984 
  89   0.0000       1.497572        40.7510 
  90   0.0000       1.518745        41.3271 
  91   0.0000       1.523141        41.4468 
  92   0.0000       1.524439        41.4821 
  93   0.0000       1.531016        41.6611 
  94   0.0000       1.533647        41.7327 
  95   0.0000       1.546826        42.0913 
  96   0.0000       1.547960        42.1221 
  97   0.0000       1.551371        42.2150 
  98   0.0000       1.563871        42.5551 
  99   0.0000       1.579056        42.9683 
 100   0.0000       1.579121        42.9701 
 101   0.0000       1.583238        43.0821 
 102   0.0000       1.585468        43.1428 
 103   0.0000       1.593241        43.3543 
 104   0.0000       1.597099        43.4593 
 105   0.0000       1.597181        43.4615 
 106   0.0000       1.601286        43.5732 
 107   0.0000       1.601727        43.5852 
 108   0.0000       1.602162        43.5971 
 109   0.0000       1.608895        43.7803 
 110   0.0000       1.617665        44.0189 
 111   0.0000       1.625144        44.2224 
 112   0.0000       1.630735        44.3746 
 113   0.0000       1.633731        44.4561 
 114   0.0000       1.645763        44.7835 
 115   0.0000       1.655257        45.0418 
 116   0.0000       1.655472        45.0477 
 117   0.0000       1.675676        45.5975 
 118   0.0000       1.694714        46.1155 
 119   0.0000       1.700456        46.2718 
 120   0.0000       1.705916        46.4203 
 121   0.0000       1.716405        46.7058 
 122   0.0000       1.723976        46.9118 
 123   0.0000       1.725221        46.9457 
 124   0.0000       1.741681        47.3935 
 125   0.0000       1.828458        49.7549 
 126   0.0000       1.875445        51.0335 
 127   0.0000       1.940341        52.7994 
 128   0.0000       1.971028        53.6344 
 129   0.0000       2.046571        55.6900 
 130   0.0000       2.065007        56.1917 
 131   0.0000       2.072273        56.3894 
 132   0.0000       2.074528        56.4508 
 133   0.0000       2.089530        56.8590 
 134   0.0000       2.089696        56.8635 
 135   0.0000       2.098117        57.0927 
 136   0.0000       2.110039        57.4171 
 137   0.0000       2.118648        57.6513 
 138   0.0000       2.128303        57.9141 
 139   0.0000       2.129375        57.9433 
 140   0.0000       2.130764        57.9810 
 141   0.0000       2.168023        58.9949 
 142   0.0000       2.188966        59.5648 
 143   0.0000       2.191928        59.6454 
 144   0.0000       2.192810        59.6694 
 145   0.0000       2.216684        60.3190 
 146   0.0000       2.245871        61.1132 
 147   0.0000       2.339864        63.6709 
 148   0.0000       2.375491        64.6404 
 149   0.0000       2.508847        68.2692 
 150   0.0000       2.533857        68.9498 
 151   0.0000       2.614537        71.1452 
 152   0.0000       4.746961       129.1714 
 153   0.0000       4.749058       129.2284 
 154   0.0000       4.753921       129.3608 
 155   0.0000       4.766274       129.6969 
 156   0.0000       4.766497       129.7030 
 157   0.0000       4.773788       129.9014 
 158   0.0000       4.779703       130.0623 
 159   0.0000       4.781963       130.1238 
 160   0.0000       4.786302       130.2419 
 161   0.0000       4.787586       130.2769 
 162   0.0000       4.789171       130.3200 
 163   0.0000       4.815929       131.0481 
 164   0.0000       4.817360       131.0870 
 165   0.0000       4.817978       131.1038 
 166   0.0000       4.821390       131.1967 
 167   0.0000       4.840363       131.7130 
 168   0.0000       4.854458       132.0965 
 169   0.0000       4.855782       132.1325 
 170   0.0000       4.861793       132.2961 
 171   0.0000       4.863613       132.3457 
 172   0.0000       4.863661       132.3469 
 173   0.0000       4.877744       132.7302 
 174   0.0000       4.881524       132.8330 
 175   0.0000       4.974346       135.3588 
 176   0.0000       4.997748       135.9956 
 177   0.0000       5.018084       136.5490 
 178   0.0000       5.021297       136.6364 
 179   0.0000       5.060422       137.7011 
 180   0.0000       5.552086       151.0799 
 181   0.0000       5.553074       151.1068 
 182   0.0000       5.553560       151.1200 
 183   0.0000       5.553648       151.1224 
 184   0.0000       5.554104       151.1348 
 185   0.0000       5.554199       151.1375 
 186   0.0000       5.554773       151.1531 
 187   0.0000       5.555133       151.1629 
 188   0.0000       5.555798       151.1810 
 189   0.0000       5.557102       151.2164 
 190   0.0000       5.557338       151.2229 
 191   0.0000       5.557787       151.2351 
 192   0.0000       5.557855       151.2369 
 193   0.0000       5.559146       151.2721 
 194   0.0000       5.559391       151.2787 
 195   0.0000       5.559685       151.2867 
 196   0.0000       5.562883       151.3737 
 197   0.0000       5.572374       151.6320 
 198   0.0000       5.578118       151.7883 
 199   0.0000       5.579832       151.8349 
 200   0.0000       5.580574       151.8551 
 201   0.0000       5.580707       151.8588 
 202   0.0000       5.581216       151.8726 
 203   0.0000       5.581314       151.8753 
 204   0.0000       5.581856       151.8900 
 205   0.0000       5.582061       151.8956 
 206   0.0000       5.583002       151.9212 
 207   0.0000       5.583265       151.9284 
 208   0.0000       5.583432       151.9329 
 209   0.0000       5.583565       151.9365 
 210   0.0000       5.583680       151.9397 
 211   0.0000       5.584052       151.9498 
 212   0.0000       5.584273       151.9558 
 213   0.0000       5.585244       151.9822 
 214   0.0000       5.586032       152.0037 
 215   0.0000       5.587906       152.0547 
 216   0.0000      33.314763       906.5408 
 217   0.0000      33.619697       914.8385 
 218   0.0000      33.653460       915.7572 
 219   0.0000      33.737178       918.0353 
 220   0.0000     110.745115      3013.5278 
 221   0.0000     110.851141      3016.4129 
 222   0.0000     110.854725      3016.5104 
 223   0.0000     110.873034      3017.0086 

                    ********************************
                    * MULLIKEN POPULATION ANALYSIS *
                    ********************************

-----------------------
MULLIKEN ATOMIC CHARGES
-----------------------
   0 Ag:    0.080171
   1 Ag:   -0.080062
   2 Ag:    0.079808
   3 Ag:   -0.079917
Sum of atomic charges:    0.0000000

--------------------------------
MULLIKEN REDUCED ORBITAL CHARGES
--------------------------------
  0 Ags       :     2.663511  s :     2.663511
      pz      :     2.026419  p :     6.348207
      px      :     2.076111
      py      :     2.245678
      dz2     :     1.987896  d :     9.905786
      dxz     :     1.982144
      dyz     :     1.988063
      dx2y2   :     1.974578
      dxy     :     1.973105
      f0      :     0.000246  f :     0.002299
      f+1     :     0.000276
      f-1     :     0.000221
      f+2     :     0.000359
      f-2     :     0.000360
      f+3     :     0.000373
      f-3     :     0.000465
      g0      :     0.000002  g :     0.000025
      g+1     :     0.000002
      g-1     :     0.000002
      g+2     :     0.000002
      g-2     :     0.000002
      g+3     :     0.000003
      g-3     :     0.000005
      g+4     :     0.000004
      g-4     :     0.000003
  1 Ags       :     3.092012  s :     3.092012
      pz      :     2.008904  p :     6.084645
      px      :     2.018171
      py      :     2.057571
      dz2     :     1.990000  d :     9.902275
      dxz     :     1.991306
      dyz     :     1.979373
      dx2y2   :     1.970053
      dxy     :     1.971542
      f0      :     0.000109  f :     0.001117
      f+1     :     0.000063
      f-1     :     0.000154
      f+2     :     0.000143
      f-2     :     0.000137
      f+3     :     0.000229
      f-3     :     0.000282
      g0      :     0.000001  g :     0.000013
      g+1     :     0.000001
      g-1     :     0.000002
      g+2     :     0.000001
      g-2     :     0.000001
      g+3     :     0.000001
      g-3     :     0.000002
      g+4     :     0.000003
      g-4     :     0.000002
  2 Ags       :     2.663694  s :     2.663694
      pz      :     2.026444  p :     6.348513
      px      :     2.076192
      py      :     2.245876
      dz2     :     1.987875  d :     9.905654
      dxz     :     1.982135
      dyz     :     1.988052
      dx2y2   :     1.974554
      dxy     :     1.973037
      f0      :     0.000246  f :     0.002306
      f+1     :     0.000277
      f-1     :     0.000221
      f+2     :     0.000359
      f-2     :     0.000361
      f+3     :     0.000375
      f-3     :     0.000467
      g0      :     0.000002  g :     0.000026
      g+1     :     0.000002
      g-1     :     0.000002
      g+2     :     0.000002
      g-2     :     0.000002
      g+3     :     0.000003
      g-3     :     0.000005
      g+4     :     0.000004
      g-4     :     0.000003
  3 Ags       :     3.091847  s :     3.091847
      pz      :     2.008926  p :     6.084759
      px      :     2.018155
      py      :     2.057679
      dz2     :     1.989992  d :     9.902176
      dxz     :     1.991302
      dyz     :     1.979344
      dx2y2   :     1.970092
      dxy     :     1.971446
      f0      :     0.000109  f :     0.001122
      f+1     :     0.000064
      f-1     :     0.000154
      f+2     :     0.000143
      f-2     :     0.000138
      f+3     :     0.000230
      f-3     :     0.000283
      g0      :     0.000001  g :     0.000013
      g+1     :     0.000001
      g-1     :     0.000002
      g+2     :     0.000001
      g-2     :     0.000001
      g+3     :     0.000001
      g-3     :     0.000002
      g+4     :     0.000003
      g-4     :     0.000002


                     *******************************
                     * LOEWDIN POPULATION ANALYSIS *
                     *******************************

----------------------
LOEWDIN ATOMIC CHARGES
----------------------
   0 Ag:   -0.074219
   1 Ag:    0.074569
   2 Ag:   -0.075020
   3 Ag:    0.074670

-------------------------------
LOEWDIN REDUCED ORBITAL CHARGES
-------------------------------
  0 Ags       :     2.513380  s :     2.513380
      pz      :     2.046700  p :     6.610874
      px      :     2.147447
      py      :     2.416727
      dz2     :     1.990726  d :     9.946538
      dxz     :     1.992569
      dyz     :     1.993543
      dx2y2   :     1.985676
      dxy     :     1.984024
      f0      :     0.000296  f :     0.003392
      f+1     :     0.000394
      f-1     :     0.000334
      f+2     :     0.000555
      f-2     :     0.000549
      f+3     :     0.000521
      f-3     :     0.000743
      g0      :     0.000003  g :     0.000036
      g+1     :     0.000003
      g-1     :     0.000003
      g+2     :     0.000003
      g-2     :     0.000003
      g+3     :     0.000004
      g-3     :     0.000007
      g+4     :     0.000006
      g-4     :     0.000005
  1 Ags       :     2.829365  s :     2.829365
      pz      :     2.014459  p :     6.166380
      px      :     2.036909
      py      :     2.115012
      dz2     :     1.995039  d :     9.927986
      dxz     :     1.993167
      dyz     :     1.981797
      dx2y2   :     1.978125
      dxy     :     1.979857
      f0      :     0.000165  f :     0.001684
      f+1     :     0.000095
      f-1     :     0.000232
      f+2     :     0.000194
      f-2     :     0.000188
      f+3     :     0.000350
      f-3     :     0.000459
      g0      :     0.000001  g :     0.000017
      g+1     :     0.000001
      g-1     :     0.000002
      g+2     :     0.000001
      g-2     :     0.000001
      g+3     :     0.000001
      g-3     :     0.000002
      g+4     :     0.000004
      g-4     :     0.000003
  2 Ags       :     2.513508  s :     2.513508
      pz      :     2.046715  p :     6.611677
      px      :     2.147615
      py      :     2.417347
      dz2     :     1.990719  d :     9.946398
      dxz     :     1.992552
      dyz     :     1.993514
      dx2y2   :     1.985631
      dxy     :     1.983982
      f0      :     0.000297  f :     0.003401
      f+1     :     0.000395
      f-1     :     0.000336
      f+2     :     0.000555
      f-2     :     0.000551
      f+3     :     0.000523
      f-3     :     0.000745
      g0      :     0.000003  g :     0.000036
      g+1     :     0.000003
      g-1     :     0.000003
      g+2     :     0.000003
      g-2     :     0.000003
      g+3     :     0.000004
      g-3     :     0.000007
      g+4     :     0.000006
      g-4     :     0.000005
  3 Ags       :     2.829148  s :     2.829148
      pz      :     2.014488  p :     6.166546
      px      :     2.036907
      py      :     2.115150
      dz2     :     1.995036  d :     9.927929
      dxz     :     1.993160
      dyz     :     1.981780
      dx2y2   :     1.978139
      dxy     :     1.979815
      f0      :     0.000166  f :     0.001690
      f+1     :     0.000096
      f-1     :     0.000233
      f+2     :     0.000195
      f-2     :     0.000189
      f+3     :     0.000351
      f-3     :     0.000460
      g0      :     0.000001  g :     0.000017
      g+1     :     0.000001
      g-1     :     0.000002
      g+2     :     0.000001
      g-2     :     0.000001
      g+3     :     0.000001
      g-3     :     0.000002
      g+4     :     0.000004
      g-4     :     0.000003


                      *****************************
                      * MAYER POPULATION ANALYSIS *
                      *****************************

  NA   - Mulliken gross atomic population
  ZA   - Total nuclear charge
  QA   - Mulliken gross atomic charge
  VA   - Mayer's total valence
  BVA  - Mayer's bonded valence
  FA   - Mayer's free valence

  ATOM       NA         ZA         QA         VA         BVA        FA
  0 Ag    18.9198    19.0000     0.0802     1.5579     1.5579    -0.0000
  1 Ag    19.0801    19.0000    -0.0801     1.2756     1.2756    -0.0000
  2 Ag    18.9202    19.0000     0.0798     1.5587     1.5587     0.0000
  3 Ag    19.0799    19.0000    -0.0799     1.2760     1.2760    -0.0000

  Mayer bond orders larger than 0.100000
B(  0-Ag,  1-Ag) :   0.5317 B(  0-Ag,  2-Ag) :   0.4939 B(  0-Ag,  3-Ag) :   0.5322 
B(  1-Ag,  2-Ag) :   0.5324 B(  1-Ag,  3-Ag) :   0.2114 B(  2-Ag,  3-Ag) :   0.5324 


-------
TIMINGS
-------

Total SCF time: 0 days 0 hours 0 min 8 sec 

Total time                  ....       8.141 sec
Sum of individual times     ....       7.918 sec  ( 97.3%)

Fock matrix formation       ....       6.100 sec  ( 74.9%)
  XC integration            ....       0.501 sec  (  8.2% of F)
    Basis function eval.    ....       0.057 sec  ( 11.3% of XC)
    Density eval.           ....       0.100 sec  ( 20.0% of XC)
    XC-Functional eval.     ....       0.035 sec  (  7.0% of XC)
    XC-Potential eval.      ....       0.177 sec  ( 35.4% of XC)
Diagonalization             ....       0.075 sec  (  0.9%)
Density matrix formation    ....       0.012 sec  (  0.1%)
Population analysis         ....       0.008 sec  (  0.1%)
Initial guess               ....       1.282 sec  ( 15.7%)
Orbital Transformation      ....       0.000 sec  (  0.0%)
Orbital Orthonormalization  ....       0.000 sec  (  0.0%)
DIIS solution               ....       0.033 sec  (  0.4%)
Grid generation             ....       0.409 sec  (  5.0%)


-------------------------------------------------------------------------------
                          DFT DISPERSION CORRECTION                            
                                                                               
                              DFTD3 V3.1  Rev 1                                
                          USING Becke-Johnson damping                          
-------------------------------------------------------------------------------
The TPSSH functional is recognized
Active option DFTDOPT                   ...         4   

molecular C6(AA) [au] = 4297.871879 


            DFT-D V3
 parameters
 s6 scaling factor         :     1.0000 
 a1 scaling factor         :     0.4529 
 s8 scaling factor         :     2.2382 
 a2 scaling factor         :     4.6550 
 ad hoc parameters k1-k3   :    16.0000     1.3333    -4.0000 

 Edisp/kcal,au: -6.259423670026  -0.009975025495 
 E6   /kcal   :  -1.764719551 
 E8   /kcal   :  -4.494704119 
 % E8         :  71.806996238 

-------------------------   ----------------
Dispersion correction           -0.009975025
-------------------------   ----------------


-------------------------   --------------------
FINAL SINGLE POINT ENERGY      -587.824319290415
-------------------------   --------------------


                            ***************************************
                            *     ORCA property calculations      *
                            ***************************************

                                    ---------------------
                                    Active property flags
                                    ---------------------
   (+) Dipole Moment


------------------------------------------------------------------------------
                       ORCA ELECTRIC PROPERTIES CALCULATION
------------------------------------------------------------------------------

Dipole Moment Calculation                       ... on
Quadrupole Moment Calculation                   ... off
Polarizability Calculation                      ... off
GBWName                                         ... Ag04N0.gbw
Electron density file                           ... Ag04N0.scfp
The origin for moment calculation is the CENTER OF MASS  = (-0.000000, -0.000000 -0.000000)

-------------
DIPOLE MOMENT
-------------
                                X             Y             Z
Electronic contribution:     -0.00138       0.00016       0.00076
Nuclear contribution   :      0.00000       0.00000       0.00000
                        -----------------------------------------
Total Dipole Moment    :     -0.00138       0.00016       0.00076
                        -----------------------------------------
Magnitude (a.u.)       :      0.00158
Magnitude (Debye)      :      0.00402



--------------------
Rotational spectrum 
--------------------
 
Rotational constants in cm-1:     0.045790     0.013394     0.010363 
Rotational constants in MHz :  1372.764620   401.554164   310.676613 

 Dipole components along the rotational axes: 
x,y,z [a.u.] :    -0.000689    -0.001423     0.000012 
x,y,z [Debye]:    -0.001750    -0.003617     0.000030 

 

Timings for individual modules:

Sum of individual times         ...        9.821 sec (=   0.164 min)
GTO integral calculation        ...        1.332 sec (=   0.022 min)  13.6 %
SCF iterations                  ...        8.489 sec (=   0.141 min)  86.4 %
                             ****ORCA TERMINATED NORMALLY****
TOTAL RUN TIME: 0 days 0 hours 0 minutes 10 seconds 300 msec
