
                                 *****************
                                 * O   R   C   A *
                                 *****************

           --- An Ab Initio, DFT and Semiempirical electronic structure package ---

                  #######################################################
                  #                        -***-                        #
                  #          Department of theory and spectroscopy      #
                  #               Directorship: Frank Neese             #
                  #        Max Planck Institute fuer Kohlenforschung    #
                  #                Kaiser Wilhelm Platz 1               #
                  #                 D-45470 Muelheim/Ruhr               #
                  #                      Germany                        #
                  #                                                     #
                  #                  All rights reserved                #
                  #                        -***-                        #
                  #######################################################


                         Program Version 4.2.0 -  RELEASE  -


 With contributions from (in alphabetic order):
   Daniel Aravena         : Magnetic Suceptibility
   Michael Atanasov       : Ab Initio Ligand Field Theory (pilot matlab implementation)
   Alexander A. Auer      : GIAO ZORA, VPT2
   Ute Becker             : Parallelization
   Giovanni Bistoni       : ED, misc. LED, open-shell LED, HFLED
   Martin Brehm           : Molecular dynamics
   Dmytro Bykov           : SCF Hessian
   Vijay G. Chilkuri      : MRCI spin determinant printing, contributions to CSF-ICE
   Dipayan Datta          : RHF DLPNO-CCSD density
   Achintya Kumar Dutta   : EOM-CC, STEOM-CC
   Dmitry Ganyushin       : Spin-Orbit,Spin-Spin,Magnetic field MRCI
   Miquel Garcia          : C-PCM Hessian, Gaussian charge scheme
   Yang Guo               : DLPNO-NEVPT2, CIM, IAO-localization
   Andreas Hansen         : Spin unrestricted coupled pair/coupled cluster methods
   Benjamin Helmich-Paris : CASSCF linear response (MC-RPA)
   Lee Huntington         : MR-EOM, pCC
   Robert Izsak           : Overlap fitted RIJCOSX, COSX-SCS-MP3, EOM
   Christian Kollmar      : KDIIS, OOCD, Brueckner-CCSD(T), CCSD density
   Simone Kossmann        : Meta GGA functionals, TD-DFT gradient, OOMP2, MP2 Hessian
   Martin Krupicka        : AUTO-CI
   Lucas Lang             : DCDCAS
   Dagmar Lenk            : GEPOL surface, SMD
   Dimitrios Liakos       : Extrapolation schemes; Compound Job, initial MDCI parallelization
   Dimitrios Manganas     : Further ROCIS development; embedding schemes
   Dimitrios Pantazis     : SARC Basis sets
   Taras Petrenko         : DFT Hessian,TD-DFT gradient, ASA, ECA, R-Raman, ABS, FL, XAS/XES, NRVS
   Peter Pinski           : DLPNO-MP2, DLPNO-MP2 Gradient
   Christoph Reimann      : Effective Core Potentials
   Marius Retegan         : Local ZFS, SOC
   Christoph Riplinger    : Optimizer, TS searches, QM/MM, DLPNO-CCSD(T), (RO)-DLPNO pert. Triples
   Tobias Risthaus        : Range-separated hybrids, TD-DFT gradient, RPA, STAB
   Michael Roemelt        : Original ROCIS implementation
   Masaaki Saitow         : Open-shell DLPNO-CCSD energy and density
   Barbara Sandhoefer     : DKH picture change effects
   Avijit Sen             : IP-ROCIS
   Kantharuban Sivalingam : CASSCF convergence, NEVPT2, FIC-MRCI
   Bernardo de Souza      : ESD, SOC TD-DFT
   Georgi Stoychev        : AutoAux, RI-MP2 NMR
   Willem Van den Heuvel  : Paramagnetic NMR
   Boris Wezisla          : Elementary symmetry handling
   Frank Wennmohs         : Technical directorship


 We gratefully acknowledge several colleagues who have allowed us to
 interface, adapt or use parts of their codes:
   Stefan Grimme, W. Hujo, H. Kruse,             : VdW corrections, initial TS optimization,
                  C. Bannwarth                     DFT functionals, gCP, sTDA/sTD-DF
   Ed Valeev, F. Pavosevic, A. Kumar             : LibInt (2-el integral package), F12 methods
   Garnet Chan, S. Sharma, J. Yang, R. Olivares  : DMRG
   Ulf Ekstrom                                   : XCFun DFT Library
   Mihaly Kallay                                 : mrcc  (arbitrary order and MRCC methods)
   Andreas Klamt, Michael Diedenhofen            : otool_cosmo (COSMO solvation model)
   Jiri Pittner, Ondrej Demel                    : Mk-CCSD
   Frank Weinhold                                : gennbo (NPA and NBO analysis)
   Christopher J. Cramer and Donald G. Truhlar   : smd solvation model
   Lars Goerigk                                  : TD-DFT with DH, B97 family of functionals
   V. Asgeirsson, H. Jonsson                     : NEB implementation
   FAccTs GmbH                                   : IRC, NEB, NEB-TS, Multilevel, MM, QM/MM, CI optimization
   S Lehtola, MJT Oliveira, MAL Marques          : LibXC Library


 Your calculation uses the libint2 library for the computation of 2-el integrals
 For citations please refer to: http://libint.valeyev.net

 Your ORCA version has been built with support for libXC version: 4.2.3
 For citations please refer to: https://tddft.org/programs/libxc/

 This ORCA versions uses:
   CBLAS   interface :  Fast vector & matrix operations
   LAPACKE interface :  Fast linear algebra routines
   SCALAPACK package :  Parallel linear algebra routines


Your calculation utilizes the atom-pairwise dispersion correction
with the Becke-Johnson damping scheme (D3BJ)
Cite in your paper:
S.Grimme, S.Ehrlich, L.Goerigk, J Comput Chem, (2011), 32, 1456–1465 
S.Grimme, J.Antony, S.Ehrlich and H.Krieg, J.Chem.Phys., 132, (2010), 154104 
   

----- Orbital basis set information -----
Your calculation utilizes the basis: def2-TZVPPD
   F. Weigend and R. Ahlrichs, Phys. Chem. Chem. Phys. 7, 3297 (2005).
   D. Rappoport and F. Furche, J. Chem. Phys. 133 134105 (2010).

----- AuxJK basis set information -----
Your calculation utilizes the auxiliary basis: def2/JK
   H-Ba, Hf-Rn: F. Weigend, J. Comput. Chem. 29, 167 (2008).

cite the ECPs for Ag [Def2-ECP] as follows:
Ce-Yb(ecp-28): M. Dolg, H. Stoll, H.Preuss, J. Chem. Phys., 1989, 90, 1730-1734.
Y-Cd(ecp-28), Hf-Hg(ecp-46): D. Andrae,U. Haeussermann, M. Dolg, H. Stoll, H. Preuss, Theor. Chim. Acta, 1990, 77, 123-141.
In-Sb(ecp-28), Tl-Bi(ecp-46): B. Metz, H. Stoll, M. Dolg, J. Chem. Phys., 2000, 113, 2563-2569.
Te-Xe(ecp-28), Po-Rn(ecp-46): K. A. Peterson, D. Figgen, E. Goll, H. Stoll, M. Dolg, J. Chem. Phys., 2003, 119, 11113-11123.
Rb(ecp-28), Cs(ecp-46): T. Leininger, A. Nicklass, W. Kuechle, H. Stoll, M. Dolg, A. Bergner, Chem. Phys. Lett., 1996, 255, 274-280.
Sr(ecp-28), Ba(ecp-46): M. Kaupp, P. V. Schleyer, H. Stoll and H. Preuss, J. Chem. Phys., 1991, 94, 1360-1366.
La(ecp-46): M. Dolg, H. Stoll, A. Savin, H. Preuss, Theor. Chim. Acta, 1989, 75, 173-194.
Lu(ecp-28): X. Cao, M. Dolg, J. Chem. Phys., 2001, 115, 7348-7355.

ECP parameters for Ag [Def2-ECP] have been obtained from:
TURBOMOLE (7.0.2)

================================================================================
                                        WARNINGS
                       Please study these warnings very carefully!
================================================================================


INFO   : the flag for use of LIBINT has been found!

================================================================================
                                       INPUT FILE
================================================================================
NAME = Ag04C2_NH3_F.in
|  1> #
|  2> # Ag04C2_NH3_F TPSSh-D3BJ/Def2-TZVPPD
|  3> #
|  4> ! tpssh d3bj def2-tzvppd def2/jk grid4 nofinalgrid
|  5> 
|  6> *xyz 2 1
|  7> Ag       0.000000    1.593354   -0.403942 
|  8> Ag       1.379885   -0.796677   -0.403942 
|  9> Ag      -1.379885   -0.796677   -0.403942 
| 10> Ag       0.000000    0.000000    1.894943 
| 11> N        0.000000    0.000000   -3.082630 
| 12> H        0.808649    0.466874   -3.509356 
| 13> H       -0.000000   -0.933748   -3.509356 
| 14> H       -0.808649    0.466874   -3.509356 
| 15> *
| 16> 
| 17> %maxcore 5000
| 18> 
| 19> %pal
| 20> nprocs = 24
| 21> end
| 22> 
| 23> 
| 24>                          ****END OF INPUT****
================================================================================

                       ****************************
                       * Single Point Calculation *
                       ****************************

---------------------------------
CARTESIAN COORDINATES (ANGSTROEM)
---------------------------------
  Ag     0.000000    1.593354   -0.403942
  Ag     1.379885   -0.796677   -0.403942
  Ag    -1.379885   -0.796677   -0.403942
  Ag     0.000000    0.000000    1.894943
  N      0.000000    0.000000   -3.082630
  H      0.808649    0.466874   -3.509356
  H     -0.000000   -0.933748   -3.509356
  H     -0.808649    0.466874   -3.509356

----------------------------
CARTESIAN COORDINATES (A.U.)
----------------------------
  NO LB      ZA    FRAG     MASS         X           Y           Z
   0 Ag   19.0000*   0   107.870    0.000000    3.011003   -0.763340
   1 Ag   19.0000*   0   107.870    2.607605   -1.505501   -0.763340
   2 Ag   19.0000*   0   107.870   -2.607605   -1.505501   -0.763340
   3 Ag   19.0000*   0   107.870    0.000000    0.000000    3.580923
   4 N     7.0000    0    14.007    0.000000    0.000000   -5.825326
   5 H     1.0000    0     1.008    1.528125    0.882264   -6.631722
   6 H     1.0000    0     1.008   -0.000000   -1.764528   -6.631722
   7 H     1.0000    0     1.008   -1.528125    0.882264   -6.631722
* core charge reduced due to ECP

--------------------------------
INTERNAL COORDINATES (ANGSTROEM)
--------------------------------
 Ag     0   0   0     0.000000000000     0.00000000     0.00000000
 Ag     1   0   0     2.759770061832     0.00000000     0.00000000
 Ag     2   1   0     2.759770000000    60.00000074     0.00000000
 Ag     2   1   3     2.797078672254    60.44025964   289.11372282
 N      2   1   3     3.116752517750    63.72169801    73.43683105
 H      5   2   1     1.026635093961    97.16631830    93.55927958
 H      5   2   1     1.026635478921    97.16630282   198.65679622
 H      5   2   1     1.026635093961   145.30586426   326.10806523

---------------------------
INTERNAL COORDINATES (A.U.)
---------------------------
 Ag     0   0   0     0.000000000000     0.00000000     0.00000000
 Ag     1   0   0     5.215209609458     0.00000000     0.00000000
 Ag     2   1   0     5.215209492612    60.00000074     0.00000000
 Ag     2   1   3     5.285712665592    60.44025964   289.11372282
 N      2   1   3     5.889808685756    63.72169801    73.43683105
 H      5   2   1     1.940059167059    97.16631830    93.55927958
 H      5   2   1     1.940059894528    97.16630282   198.65679622
 H      5   2   1     1.940059167059   145.30586426   326.10806523

---------------------
BASIS SET INFORMATION
---------------------
There are 3 groups of distinct atoms

 Group   1 Type Ag  : 7s7p6d2f1g contracted to 6s4p3d2f1g pattern {211111/4111/411/11/1}
 Group   2 Type N   : 12s6p3d1f contracted to 6s3p3d1f pattern {621111/411/111/1}
 Group   3 Type H   : 5s3p1d contracted to 3s3p1d pattern {311/111/1}

Atom   0Ag   basis set group =>   1
Atom   1Ag   basis set group =>   1
Atom   2Ag   basis set group =>   1
Atom   3Ag   basis set group =>   1
Atom   4N    basis set group =>   2
Atom   5H    basis set group =>   3
Atom   6H    basis set group =>   3
Atom   7H    basis set group =>   3
----------------------------------
AUXILIARY/JK BASIS SET INFORMATION
----------------------------------
There are 3 groups of distinct atoms

 Group   1 Type Ag  : 13s12p10d9f6g3h2i contracted to 11s10p9d8f6g3h2i pattern {31111111111/3111111111/211111111/21111111/111111/111/11}
 Group   2 Type N   : 14s10p6d2f1g contracted to 10s8p4d2f1g pattern {5111111111/31111111/3111/11/1}
 Group   3 Type H   : 4s2p2d contracted to 2s2p2d pattern {31/11/11}

Atom   0Ag   basis set group =>   1
Atom   1Ag   basis set group =>   1
Atom   2Ag   basis set group =>   1
Atom   3Ag   basis set group =>   1
Atom   4N    basis set group =>   2
Atom   5H    basis set group =>   3
Atom   6H    basis set group =>   3
Atom   7H    basis set group =>   3
-------------------------
ECP PARAMETER INFORMATION
-------------------------

 Group 1, Type Ag ECP Def2-ECP (replacing 28 core electrons, lmax=3)

Atom   0Ag   ECP group =>   1
Atom   1Ag   ECP group =>   1
Atom   2Ag   ECP group =>   1
Atom   3Ag   ECP group =>   1



           ************************************************************
           *        Program running with 24 parallel MPI-processes    *
           *              working on a common directory               *
           ************************************************************
------------------------------------------------------------------------------
                           ORCA GTO INTEGRAL CALCULATION
------------------------------------------------------------------------------

                         BASIS SET STATISTICS AND STARTUP INFO

 # of primitive gaussian shells          ...  141
 # of primitive gaussian functions       ...  433
 # of contracted shells                  ...   98
 # of contracted basis functions         ...  312
 Highest angular momentum                ...    4
 Maximum contraction depth               ...    6
 Integral package used                   ... LIBINT
 Integral threshhold            Thresh   ...  1.000e-10
 Primitive cut-off              TCut     ...  1.000e-11


------------------------------ INTEGRAL EVALUATION ----------------------------


 * One electron integrals 

   ECP integrals                         ... done
 Pre-screening matrix                    ... done
 Shell pair data                         ... done (   0.001 sec)



           ************************************************************
           *        Program running with 24 parallel MPI-processes    *
           *              working on a common directory               *
           ************************************************************
-------------------------------------------------------------------------------
                                 ORCA SCF
-------------------------------------------------------------------------------

------------
SCF SETTINGS
------------
Hamiltonian:
 Density Functional     Method          .... DFT(GTOs)
 Exchange Functional    Exchange        .... TPSS
 Correlation Functional Correlation     .... TPSS
 LDA part of GGA corr.  LDAOpt          .... PW91-LDA
 Gradients option       PostSCFGGA      .... off
 Hybrid DFT is turned on
   Fraction HF Exchange ScalHFX         ....  0.100000
   Scaling of DF-GGA-X  ScalDFX         ....  0.900000
   Scaling of DF-GGA-C  ScalDFC         ....  1.000000
   Scaling of DF-LDA-C  ScalLDAC        ....  1.000000
   Perturbative correction              ....  0.000000
   Density functional embedding theory  .... OFF
   NL short-range parameter             ....  5.200000


General Settings:
 Integral files         IntName         .... Ag04C2_NH3_F
 Hartree-Fock type      HFTyp           .... RHF
 Total Charge           Charge          ....    2
 Multiplicity           Mult            ....    1
 Number of Electrons    NEL             ....   84
 Basis Dimension        Dim             ....  312
 Nuclear Repulsion      ENuc            ....    537.0150886910 Eh

Convergence Acceleration:
 DIIS                   CNVDIIS         .... on
   Start iteration      DIISMaxIt       ....    12
   Startup error        DIISStart       ....  0.200000
   # of expansion vecs  DIISMaxEq       ....     5
   Bias factor          DIISBfac        ....   1.050
   Max. coefficient     DIISMaxC        ....  10.000
 Newton-Raphson         CNVNR           .... off
 SOSCF                  CNVSOSCF        .... off
 Level Shifting         CNVShift        .... on
   Level shift para.    LevelShift      ....    0.2500
   Turn off err/grad.   ShiftErr        ....    0.0010
 Zerner damping         CNVZerner       .... off
 Static damping         CNVDamp         .... on
   Fraction old density DampFac         ....    0.7000
   Max. Damping (<1)    DampMax         ....    0.9800
   Min. Damping (>=0)   DampMin         ....    0.0000
   Turn off err/grad.   DampErr         ....    0.1000
 Fernandez-Rico         CNVRico         .... off

SCF Procedure:
 Maximum # iterations   MaxIter         ....   125
 SCF integral mode      SCFMode         .... Direct
   Integral package                     .... LIBINT
 Reset frequency        DirectResetFreq ....    20
 Integral Threshold     Thresh          ....  1.000e-10 Eh
 Primitive CutOff       TCut            ....  1.000e-11 Eh

Convergence Tolerance:
 Convergence Check Mode ConvCheckMode   .... Total+1el-Energy
 Convergence forced     ConvForced      .... 0
 Energy Change          TolE            ....  1.000e-06 Eh
 1-El. energy change                    ....  1.000e-03 Eh
 DIIS Error             TolErr          ....  1.000e-06


Diagonalization of the overlap matrix:
Smallest eigenvalue                        ... 2.571e-04
Time for diagonalization                   ...    0.014 sec
Threshold for overlap eigenvalues          ... 1.000e-08
Number of eigenvalues below threshold      ... 0
Time for construction of square roots      ...    0.011 sec
Total time needed                          ...    0.026 sec

-------------------
DFT GRID GENERATION
-------------------

General Integration Accuracy     IntAcc      ...  4.670
Radial Grid Type                 RadialGrid  ... Gauss-Chebyshev
Angular Grid (max. acc.)         AngularGrid ... Lebedev-302
Angular grid pruning method      GridPruning ... 3 (G Style)
Weight generation scheme         WeightScheme... Becke
Basis function cutoff            BFCut       ...    1.0000e-10
Integration weight cutoff        WCut        ...    1.0000e-14
Grids for H and He will be reduced by one unit

# of grid points (after initial pruning)     ...  59026 (   0.0 sec)
# of grid points (after weights+screening)   ...  56864 (   0.0 sec)
nearest neighbour list constructed           ...    0.0 sec
Grid point re-assignment to atoms done       ...    0.0 sec
Grid point division into batches done        ...    0.4 sec
Reduced shell lists constructed in    0.4 sec

Total number of grid points                  ...    56864
Total number of batches                      ...      892
Average number of points per batch           ...       63
Average number of grid points per atom       ...     7108
Average number of shells per batch           ...    26.18 (26.71%)
Average number of basis functions per batch  ...    69.21 (22.18%)
Average number of large shells per batch     ...    18.05 (68.95%)
Average number of large basis fcns per batch ...    45.79 (66.17%)
Maximum spatial batch extension              ...  24.21, 20.12, 27.87 au
Average spatial batch extension              ...   0.35,  0.32,  0.37 au

Time for grid setup =    0.421 sec

------------------------------
INITIAL GUESS: MODEL POTENTIAL
------------------------------
Loading Hartree-Fock densities                     ... done
  calling /sw/apps/orca/orca_4_2_0_linux_x86-64_openmpi314/orca Ag04C2_NH3_F_atom47.inp > Ag04C2_NH3_F_atom47.out in order to generate an atomic fitting density for atom 0 (Ag with ECP) on-the-fly... 
    atom 0 (Ag), assumed electronic state with S=2: 1s2 2s2 2p6 3s2 3p6 4s2 3d10 4p6 5s2 4d9           ... done
Calculating cut-offs                               ... done
Setting up the integral package                    ... done
Initializing the effective Hamiltonian             ... done
Starting the Coulomb interaction                   ... done (   0.0 sec)
Reading the grid                                   ... done
Mapping shells                                     ... done
Starting the XC term evaluation                    ... done (   0.0 sec)
  promolecular density results
     # of electrons  =    198.000391209
     EX              =   -581.192868433
     EC              =    -10.291424967
     EX+EC           =   -591.484293400
Transforming the Hamiltonian                       ... done (   0.0 sec)
Diagonalizing the Hamiltonian                      ... done (   0.0 sec)
Back transforming the eigenvectors                 ... done (   0.0 sec)
Now organizing SCF variables                       ... done
                      ------------------
                      INITIAL GUESS DONE (   1.7 sec)
                      ------------------
--------------
SCF ITERATIONS
--------------
ITER       Energy         Delta-E        Max-DP      RMS-DP      [F,P]     Damp
               ***  Starting incremental Fock matrix formation  ***
  0   -643.4445888231   0.000000000000 0.08649216  0.00137126  0.5120603 0.7000
  1   -643.6206191899  -0.176030366797 0.04129192  0.00073097  0.3360432 0.7000
  2   -643.6801449754  -0.059525785528 0.01604212  0.00027503  0.2232032 0.7000
                               ***Turning on DIIS***
  3   -643.7175616242  -0.037416648787 0.00742292  0.00014611  0.1529480 0.7000
  4   -643.7453555998  -0.027793975586 0.00460287  0.00011677  0.1068345 0.7000
  5   -643.7650169032  -0.019661303411 0.01406469  0.00029363  0.0752182 0.0000
  6   -643.8107387465  -0.045721843301 0.00367170  0.00004587  0.0008080 0.0000
  7   -643.8107512835  -0.000012536935 0.00110118  0.00001311  0.0006429 0.0000
  8   -643.8107537161  -0.000002432658 0.00074537  0.00000599  0.0005035 0.0000
  9   -643.8107546466  -0.000000930481 0.00034155  0.00000262  0.0001734 0.0000
 10   -643.8107546895  -0.000000042950 0.00019182  0.00000143  0.0001528 0.0000
                 **** Energy Check signals convergence ****

               *****************************************************
               *                     SUCCESS                       *
               *           SCF CONVERGED AFTER  11 CYCLES          *
               *****************************************************


----------------
TOTAL SCF ENERGY
----------------

Total Energy       :         -643.81075473 Eh          -17518.98128 eV

Components:
Nuclear Repulsion  :          537.01508869 Eh           14612.92347 eV
Electronic Energy  :        -1180.82584342 Eh          -32131.90475 eV
One Electron Energy:        -2164.21323859 Eh          -58891.23619 eV
Two Electron Energy:          983.38739517 Eh           26759.33144 eV

Virial components:
Potential Energy   :         -924.92311661 Eh          -25168.43754 eV
Kinetic Energy     :          281.11236188 Eh            7649.45626 eV
Virial Ratio       :            3.29022570


DFT components:
N(Alpha)           :       41.999987110100 electrons
N(Beta)            :       41.999987110100 electrons
N(Total)           :       83.999974220201 electrons
E(X)               :      -54.373965189745 Eh       
E(C)               :       -3.597150560592 Eh       
E(XC)              :      -57.971115750336 Eh       
DFET-embed. en.    :        0.000000000000 Eh       

---------------
SCF CONVERGENCE
---------------

  Last Energy change         ...   -4.1211e-08  Tolerance :   1.0000e-06
  Last MAX-Density change    ...    4.5474e-05  Tolerance :   1.0000e-05
  Last RMS-Density change    ...    3.3351e-07  Tolerance :   1.0000e-06
  Last DIIS Error            ...    2.5313e-05  Tolerance :   1.0000e-06

             **** THE GBW FILE WAS UPDATED (Ag04C2_NH3_F.gbw) ****
             **** DENSITY FILE WAS UPDATED (Ag04C2_NH3_F.scfp) ****
             **** ENERGY FILE WAS UPDATED (Ag04C2_NH3_F.en.tmp) ****
             **** THE GBW FILE WAS UPDATED (Ag04C2_NH3_F.gbw) ****
             **** DENSITY FILE WAS UPDATED (Ag04C2_NH3_F.scfp) ****
----------------
ORBITAL ENERGIES
----------------

  NO   OCC          E(Eh)            E(eV) 
   0   2.0000     -14.551807      -395.9748 
   1   2.0000      -4.020589      -109.4058 
   2   2.0000      -4.020295      -109.3978 
   3   2.0000      -4.020290      -109.3976 
   4   2.0000      -4.015107      -109.2566 
   5   2.0000      -2.629491       -71.5521 
   6   2.0000      -2.627354       -71.4939 
   7   2.0000      -2.627352       -71.4939 
   8   2.0000      -2.625769       -71.4508 
   9   2.0000      -2.625767       -71.4507 
  10   2.0000      -2.625215       -71.4357 
  11   2.0000      -2.625135       -71.4335 
  12   2.0000      -2.624136       -71.4064 
  13   2.0000      -2.624131       -71.4062 
  14   2.0000      -2.621355       -71.3307 
  15   2.0000      -2.619631       -71.2838 
  16   2.0000      -2.619630       -71.2838 
  17   2.0000      -1.143199       -31.1080 
  18   2.0000      -0.746445       -20.3118 
  19   2.0000      -0.746442       -20.3117 
  20   2.0000      -0.705936       -19.2095 
  21   2.0000      -0.683026       -18.5861 
  22   2.0000      -0.679781       -18.4978 
  23   2.0000      -0.679768       -18.4974 
  24   2.0000      -0.670986       -18.2585 
  25   2.0000      -0.670985       -18.2584 
  26   2.0000      -0.661470       -17.9995 
  27   2.0000      -0.656276       -17.8582 
  28   2.0000      -0.656266       -17.8579 
  29   2.0000      -0.638661       -17.3788 
  30   2.0000      -0.637807       -17.3556 
  31   2.0000      -0.637804       -17.3555 
  32   2.0000      -0.635770       -17.3002 
  33   2.0000      -0.635761       -17.2999 
  34   2.0000      -0.635442       -17.2913 
  35   2.0000      -0.634641       -17.2695 
  36   2.0000      -0.634638       -17.2694 
  37   2.0000      -0.619924       -16.8690 
  38   2.0000      -0.618279       -16.8242 
  39   2.0000      -0.618267       -16.8239 
  40   2.0000      -0.613641       -16.6980 
  41   2.0000      -0.558492       -15.1974 
  42   0.0000      -0.426012       -11.5924 
  43   0.0000      -0.426006       -11.5922 
  44   0.0000      -0.411584       -11.1998 
  45   0.0000      -0.315520        -8.5857 
  46   0.0000      -0.303281        -8.2527 
  47   0.0000      -0.303279        -8.2527 
  48   0.0000      -0.286669        -7.8007 
  49   0.0000      -0.286666        -7.8006 
  50   0.0000      -0.285622        -7.7722 
  51   0.0000      -0.220004        -5.9866 
  52   0.0000      -0.182162        -4.9569 
  53   0.0000      -0.182159        -4.9568 
  54   0.0000      -0.176804        -4.8111 
  55   0.0000      -0.176800        -4.8110 
  56   0.0000      -0.174121        -4.7381 
  57   0.0000      -0.156593        -4.2611 
  58   0.0000      -0.155429        -4.2294 
  59   0.0000      -0.155427        -4.2294 
  60   0.0000      -0.127434        -3.4677 
  61   0.0000      -0.107755        -2.9322 
  62   0.0000      -0.097113        -2.6426 
  63   0.0000      -0.097111        -2.6425 
  64   0.0000      -0.092753        -2.5239 
  65   0.0000      -0.086345        -2.3496 
  66   0.0000      -0.086345        -2.3496 
  67   0.0000      -0.080111        -2.1799 
  68   0.0000      -0.070004        -1.9049 
  69   0.0000      -0.070002        -1.9049 
  70   0.0000      -0.055830        -1.5192 
  71   0.0000      -0.055828        -1.5191 
  72   0.0000      -0.048831        -1.3288 
  73   0.0000      -0.012960        -0.3527 
  74   0.0000      -0.012954        -0.3525 
  75   0.0000       0.006369         0.1733 
  76   0.0000       0.015537         0.4228 
  77   0.0000       0.015541         0.4229 
  78   0.0000       0.021458         0.5839 
  79   0.0000       0.040966         1.1147 
  80   0.0000       0.040974         1.1150 
  81   0.0000       0.042223         1.1490 
  82   0.0000       0.055740         1.5168 
  83   0.0000       0.064832         1.7642 
  84   0.0000       0.064833         1.7642 
  85   0.0000       0.090629         2.4661 
  86   0.0000       0.090632         2.4662 
  87   0.0000       0.104653         2.8478 
  88   0.0000       0.137342         3.7373 
  89   0.0000       0.163344         4.4448 
  90   0.0000       0.163369         4.4455 
  91   0.0000       0.196011         5.3337 
  92   0.0000       0.196019         5.3339 
  93   0.0000       0.196330         5.3424 
  94   0.0000       0.212935         5.7942 
  95   0.0000       0.212945         5.7945 
  96   0.0000       0.234846         6.3905 
  97   0.0000       0.252449         6.8695 
  98   0.0000       0.288066         7.8387 
  99   0.0000       0.288072         7.8388 
 100   0.0000       0.292576         7.9614 
 101   0.0000       0.292577         7.9614 
 102   0.0000       0.325644         8.8612 
 103   0.0000       0.325677         8.8621 
 104   0.0000       0.326157         8.8752 
 105   0.0000       0.340854         9.2751 
 106   0.0000       0.373915        10.1747 
 107   0.0000       0.373916        10.1748 
 108   0.0000       0.392847        10.6899 
 109   0.0000       0.392888        10.6910 
 110   0.0000       0.409510        11.1433 
 111   0.0000       0.425292        11.5728 
 112   0.0000       0.457569        12.4511 
 113   0.0000       0.457594        12.4518 
 114   0.0000       0.493151        13.4193 
 115   0.0000       0.544164        14.8075 
 116   0.0000       0.544168        14.8076 
 117   0.0000       0.571363        15.5476 
 118   0.0000       0.796305        21.6686 
 119   0.0000       0.808974        22.0133 
 120   0.0000       0.809041        22.0151 
 121   0.0000       0.823781        22.4162 
 122   0.0000       0.931686        25.3525 
 123   0.0000       0.931702        25.3529 
 124   0.0000       0.951492        25.8914 
 125   0.0000       0.951498        25.8916 
 126   0.0000       1.141483        31.0613 
 127   0.0000       1.148747        31.2590 
 128   0.0000       1.148763        31.2594 
 129   0.0000       1.188031        32.3280 
 130   0.0000       1.189551        32.3693 
 131   0.0000       1.189583        32.3702 
 132   0.0000       1.197547        32.5869 
 133   0.0000       1.199882        32.6505 
 134   0.0000       1.199884        32.6505 
 135   0.0000       1.203541        32.7500 
 136   0.0000       1.215689        33.0806 
 137   0.0000       1.226257        33.3681 
 138   0.0000       1.226268        33.3684 
 139   0.0000       1.234398        33.5897 
 140   0.0000       1.234409        33.5900 
 141   0.0000       1.236634        33.6505 
 142   0.0000       1.241244        33.7760 
 143   0.0000       1.248652        33.9775 
 144   0.0000       1.248659        33.9778 
 145   0.0000       1.253172        34.1006 
 146   0.0000       1.267260        34.4839 
 147   0.0000       1.270267        34.5657 
 148   0.0000       1.270270        34.5658 
 149   0.0000       1.271879        34.6096 
 150   0.0000       1.271880        34.6096 
 151   0.0000       1.282144        34.8889 
 152   0.0000       1.305040        35.5119 
 153   0.0000       1.307256        35.5722 
 154   0.0000       1.307265        35.5725 
 155   0.0000       1.323739        36.0208 
 156   0.0000       1.323743        36.0209 
 157   0.0000       1.339379        36.4464 
 158   0.0000       1.345028        36.6001 
 159   0.0000       1.345052        36.6007 
 160   0.0000       1.348674        36.6993 
 161   0.0000       1.422268        38.7019 
 162   0.0000       1.422279        38.7022 
 163   0.0000       1.434364        39.0310 
 164   0.0000       1.461522        39.7700 
 165   0.0000       1.461528        39.7702 
 166   0.0000       1.532576        41.7035 
 167   0.0000       1.549182        42.1554 
 168   0.0000       1.550356        42.1873 
 169   0.0000       1.550410        42.1888 
 170   0.0000       1.616906        43.9982 
 171   0.0000       1.616950        43.9995 
 172   0.0000       1.732810        47.1521 
 173   0.0000       1.732826        47.1526 
 174   0.0000       1.733680        47.1758 
 175   0.0000       1.756817        47.8054 
 176   0.0000       1.779779        48.4303 
 177   0.0000       1.779835        48.4318 
 178   0.0000       1.805079        49.1187 
 179   0.0000       1.805090        49.1190 
 180   0.0000       1.826087        49.6903 
 181   0.0000       1.838259        50.0216 
 182   0.0000       1.838379        50.0248 
 183   0.0000       1.840426        50.0805 
 184   0.0000       1.840503        50.0826 
 185   0.0000       1.851117        50.3714 
 186   0.0000       1.856890        50.5286 
 187   0.0000       1.868912        50.8557 
 188   0.0000       1.868966        50.8572 
 189   0.0000       1.981422        53.9172 
 190   0.0000       1.985967        54.0409 
 191   0.0000       1.985991        54.0416 
 192   0.0000       2.144235        58.3476 
 193   0.0000       2.313722        62.9596 
 194   0.0000       2.313782        62.9612 
 195   0.0000       2.333204        63.4897 
 196   0.0000       2.340366        63.6846 
 197   0.0000       2.441851        66.4461 
 198   0.0000       2.475726        67.3679 
 199   0.0000       2.475771        67.3692 
 200   0.0000       2.545605        69.2694 
 201   0.0000       2.695862        73.3581 
 202   0.0000       2.695863        73.3582 
 203   0.0000       2.806694        76.3740 
 204   0.0000       2.969367        80.8006 
 205   0.0000       3.024446        82.2994 
 206   0.0000       3.024450        82.2995 
 207   0.0000       3.104116        84.4673 
 208   0.0000       3.104123        84.4675 
 209   0.0000       3.246996        88.3553 
 210   0.0000       3.247059        88.3570 
 211   0.0000       3.248745        88.4028 
 212   0.0000       3.610955        98.2591 
 213   0.0000       3.649019        99.2949 
 214   0.0000       3.649032        99.2952 
 215   0.0000       3.727483       101.4300 
 216   0.0000       3.727536       101.4314 
 217   0.0000       3.751201       102.0754 
 218   0.0000       3.897517       106.0568 
 219   0.0000       3.897608       106.0593 
 220   0.0000       4.116746       112.0224 
 221   0.0000       4.186701       113.9259 
 222   0.0000       4.186754       113.9274 
 223   0.0000       4.293774       116.8395 
 224   0.0000       4.408909       119.9725 
 225   0.0000       4.408989       119.9747 
 226   0.0000       4.428691       120.5108 
 227   0.0000       4.430751       120.5669 
 228   0.0000       4.430808       120.5684 
 229   0.0000       4.441520       120.8599 
 230   0.0000       4.450860       121.1141 
 231   0.0000       4.451695       121.1368 
 232   0.0000       4.458662       121.3263 
 233   0.0000       4.458717       121.3279 
 234   0.0000       4.463279       121.4520 
 235   0.0000       4.475491       121.7843 
 236   0.0000       4.480094       121.9096 
 237   0.0000       4.480153       121.9112 
 238   0.0000       4.492600       122.2499 
 239   0.0000       4.492682       122.2521 
 240   0.0000       4.493459       122.2732 
 241   0.0000       4.504681       122.5786 
 242   0.0000       4.508215       122.6748 
 243   0.0000       4.508233       122.6753 
 244   0.0000       4.523616       123.0939 
 245   0.0000       4.523665       123.0952 
 246   0.0000       4.574007       124.4651 
 247   0.0000       4.630425       126.0003 
 248   0.0000       4.630466       126.0014 
 249   0.0000       4.652874       126.6111 
 250   0.0000       4.653766       126.6354 
 251   0.0000       4.654270       126.6491 
 252   0.0000       4.654347       126.6512 
 253   0.0000       4.680833       127.3719 
 254   0.0000       4.680858       127.3726 
 255   0.0000       4.967713       135.1784 
 256   0.0000       4.967863       135.1824 
 257   0.0000       5.039407       137.1292 
 258   0.0000       5.208555       141.7320 
 259   0.0000       5.209240       141.7506 
 260   0.0000       5.209594       141.7603 
 261   0.0000       5.209910       141.7689 
 262   0.0000       5.210201       141.7768 
 263   0.0000       5.210258       141.7783 
 264   0.0000       5.210752       141.7918 
 265   0.0000       5.210826       141.7938 
 266   0.0000       5.210891       141.7956 
 267   0.0000       5.211319       141.8072 
 268   0.0000       5.211467       141.8112 
 269   0.0000       5.211577       141.8142 
 270   0.0000       5.211913       141.8234 
 271   0.0000       5.212680       141.8442 
 272   0.0000       5.212787       141.8472 
 273   0.0000       5.212874       141.8495 
 274   0.0000       5.213373       141.8631 
 275   0.0000       5.213516       141.8670 
 276   0.0000       5.213550       141.8679 
 277   0.0000       5.214149       141.8842 
 278   0.0000       5.214265       141.8874 
 279   0.0000       5.216119       141.9378 
 280   0.0000       5.216371       141.9447 
 281   0.0000       5.216830       141.9572 
 282   0.0000       5.217916       141.9867 
 283   0.0000       5.218041       141.9901 
 284   0.0000       5.218277       141.9965 
 285   0.0000       5.218924       142.0141 
 286   0.0000       5.219085       142.0185 
 287   0.0000       5.219102       142.0190 
 288   0.0000       5.219758       142.0368 
 289   0.0000       5.219765       142.0370 
 290   0.0000       5.223832       142.1477 
 291   0.0000       5.232650       142.3876 
 292   0.0000       5.233081       142.3994 
 293   0.0000       5.233130       142.4007 
 294   0.0000       5.257692       143.0691 
 295   0.0000       5.555991       151.1862 
 296   0.0000       5.668975       154.2607 
 297   0.0000       5.669230       154.2676 
 298   0.0000       5.776233       157.1793 
 299   0.0000       5.776305       157.1812 
 300   0.0000       6.229835       169.5224 
 301   0.0000       6.475438       176.2056 
 302   0.0000       6.475485       176.2069 
 303   0.0000      32.485381       883.9721 
 304   0.0000      33.091390       900.4625 
 305   0.0000      33.394391       908.7076 
 306   0.0000      33.463269       910.5818 
 307   0.0000      33.463271       910.5819 
 308   0.0000     110.432339      3005.0167 
 309   0.0000     110.533369      3007.7659 
 310   0.0000     110.552861      3008.2963 
 311   0.0000     110.552864      3008.2964 

                    ********************************
                    * MULLIKEN POPULATION ANALYSIS *
                    ********************************

-----------------------
MULLIKEN ATOMIC CHARGES
-----------------------
   0 Ag:    0.445829
   1 Ag:    0.445898
   2 Ag:    0.445888
   3 Ag:    0.470132
   4 N :   -0.349448
   5 H :    0.180464
   6 H :    0.180774
   7 H :    0.180464
Sum of atomic charges:    2.0000000

--------------------------------
MULLIKEN REDUCED ORBITAL CHARGES
--------------------------------
  0 Ags       :     2.502790  s :     2.502790
      pz      :     2.061900  p :     6.152442
      px      :     2.017248
      py      :     2.073294
      dz2     :     1.968913  d :     9.897279
      dxz     :     1.994920
      dyz     :     1.989500
      dx2y2   :     1.990120
      dxy     :     1.953826
      f0      :     0.000177  f :     0.001643
      f+1     :     0.000115
      f-1     :     0.000383
      f+2     :     0.000168
      f-2     :     0.000185
      f+3     :     0.000373
      f-3     :     0.000242
      g0      :     0.000002  g :     0.000017
      g+1     :     0.000001
      g-1     :     0.000003
      g+2     :     0.000002
      g-2     :     0.000002
      g+3     :     0.000001
      g-3     :     0.000001
      g+4     :     0.000002
      g-4     :     0.000003
  1 Ags       :     2.502703  s :     2.502703
      pz      :     2.061944  p :     6.152458
      px      :     2.059255
      py      :     2.031259
      dz2     :     1.968911  d :     9.897282
      dxz     :     1.990861
      dyz     :     1.993566
      dx2y2   :     1.962909
      dxy     :     1.981035
      f0      :     0.000177  f :     0.001643
      f+1     :     0.000316
      f-1     :     0.000182
      f+2     :     0.000181
      f-2     :     0.000172
      f+3     :     0.000373
      f-3     :     0.000242
      g0      :     0.000002  g :     0.000017
      g+1     :     0.000002
      g-1     :     0.000001
      g+2     :     0.000002
      g-2     :     0.000002
      g+3     :     0.000001
      g-3     :     0.000001
      g+4     :     0.000003
      g-4     :     0.000003
  2 Ags       :     2.502711  s :     2.502711
      pz      :     2.061944  p :     6.152460
      px      :     2.059257
      py      :     2.031259
      dz2     :     1.968911  d :     9.897282
      dxz     :     1.990861
      dyz     :     1.993566
      dx2y2   :     1.962909
      dxy     :     1.981035
      f0      :     0.000177  f :     0.001643
      f+1     :     0.000316
      f-1     :     0.000182
      f+2     :     0.000181
      f-2     :     0.000172
      f+3     :     0.000373
      f-3     :     0.000242
      g0      :     0.000002  g :     0.000017
      g+1     :     0.000002
      g-1     :     0.000001
      g+2     :     0.000002
      g-2     :     0.000002
      g+3     :     0.000001
      g-3     :     0.000001
      g+4     :     0.000003
      g-4     :     0.000003
  3 Ags       :     2.538019  s :     2.538019
      pz      :     2.078275  p :     6.107215
      px      :     2.014469
      py      :     2.014471
      dz2     :     1.988755  d :     9.883248
      dxz     :     1.955931
      dyz     :     1.955952
      dx2y2   :     1.991305
      dxy     :     1.991305
      f0      :     0.000228  f :     0.001372
      f+1     :     0.000309
      f-1     :     0.000308
      f+2     :     0.000222
      f-2     :     0.000222
      f+3     :     0.000037
      f-3     :     0.000047
      g0      :     0.000002  g :     0.000014
      g+1     :     0.000002
      g-1     :     0.000002
      g+2     :     0.000003
      g-2     :     0.000003
      g+3     :     0.000001
      g-3     :     0.000001
      g+4     :     0.000000
      g-4     :     0.000000
  4 N s       :     3.466105  s :     3.466105
      pz      :     1.546437  p :     3.886235
      px      :     1.169935
      py      :     1.169863
      dz2     :    -0.009077  d :    -0.003540
      dxz     :    -0.000409
      dyz     :    -0.000419
      dx2y2   :     0.003186
      dxy     :     0.003181
      f0      :     0.000284  f :     0.000647
      f+1     :     0.000031
      f-1     :     0.000031
      f+2     :     0.000054
      f-2     :     0.000054
      f+3     :     0.000000
      f-3     :     0.000193
  5 H s       :     0.735812  s :     0.735812
      pz      :     0.032600  p :     0.079917
      px      :     0.025559
      py      :     0.021758
      dz2     :     0.000696  d :     0.003808
      dxz     :     0.000910
      dyz     :     0.000379
      dx2y2   :     0.000991
      dxy     :     0.000832
  6 H s       :     0.735664  s :     0.735664
      pz      :     0.032432  p :     0.079754
      px      :     0.019867
      py      :     0.027456
      dz2     :     0.000697  d :     0.003808
      dxz     :     0.000113
      dyz     :     0.001174
      dx2y2   :     0.000754
      dxy     :     0.001070
  7 H s       :     0.735812  s :     0.735812
      pz      :     0.032600  p :     0.079917
      px      :     0.025559
      py      :     0.021758
      dz2     :     0.000696  d :     0.003808
      dxz     :     0.000910
      dyz     :     0.000379
      dx2y2   :     0.000991
      dxy     :     0.000832


                     *******************************
                     * LOEWDIN POPULATION ANALYSIS *
                     *******************************

----------------------
LOEWDIN ATOMIC CHARGES
----------------------
   0 Ag:    0.478136
   1 Ag:    0.478129
   2 Ag:    0.478129
   3 Ag:    0.468806
   4 N :    0.411890
   5 H :   -0.105032
   6 H :   -0.105026
   7 H :   -0.105032

-------------------------------
LOEWDIN REDUCED ORBITAL CHARGES
-------------------------------
  0 Ags       :     2.345709  s :     2.345709
      pz      :     2.089524  p :     6.253562
      px      :     2.027661
      py      :     2.136377
      dz2     :     1.974193  d :     9.920083
      dxz     :     1.991370
      dyz     :     1.995918
      dx2y2   :     1.991853
      dxy     :     1.966751
      f0      :     0.000228  f :     0.002486
      f+1     :     0.000164
      f-1     :     0.000664
      f+2     :     0.000253
      f-2     :     0.000238
      f+3     :     0.000628
      f-3     :     0.000311
      g0      :     0.000002  g :     0.000024
      g+1     :     0.000001
      g-1     :     0.000004
      g+2     :     0.000003
      g-2     :     0.000003
      g+3     :     0.000002
      g-3     :     0.000001
      g+4     :     0.000003
      g-4     :     0.000005
  1 Ags       :     2.345680  s :     2.345680
      pz      :     2.089544  p :     6.253581
      px      :     2.109194
      py      :     2.054843
      dz2     :     1.974193  d :     9.920100
      dxz     :     1.994789
      dyz     :     1.992507
      dx2y2   :     1.973037
      dxy     :     1.985574
      f0      :     0.000228  f :     0.002486
      f+1     :     0.000539
      f-1     :     0.000289
      f+2     :     0.000241
      f-2     :     0.000249
      f+3     :     0.000628
      f-3     :     0.000311
      g0      :     0.000002  g :     0.000024
      g+1     :     0.000003
      g-1     :     0.000002
      g+2     :     0.000003
      g-2     :     0.000003
      g+3     :     0.000002
      g-3     :     0.000001
      g+4     :     0.000004
      g-4     :     0.000003
  2 Ags       :     2.345680  s :     2.345680
      pz      :     2.089544  p :     6.253581
      px      :     2.109194
      py      :     2.054843
      dz2     :     1.974193  d :     9.920100
      dxz     :     1.994789
      dyz     :     1.992507
      dx2y2   :     1.973037
      dxy     :     1.985574
      f0      :     0.000228  f :     0.002486
      f+1     :     0.000539
      f-1     :     0.000289
      f+2     :     0.000241
      f-2     :     0.000249
      f+3     :     0.000628
      f-3     :     0.000311
      g0      :     0.000002  g :     0.000024
      g+1     :     0.000003
      g-1     :     0.000002
      g+2     :     0.000003
      g-2     :     0.000003
      g+3     :     0.000002
      g-3     :     0.000001
      g+4     :     0.000004
      g-4     :     0.000003
  3 Ags       :     2.415492  s :     2.415492
      pz      :     2.151312  p :     6.199544
      px      :     2.024117
      py      :     2.024115
      dz2     :     1.993399  d :     9.914044
      dxz     :     1.967415
      dyz     :     1.967432
      dx2y2   :     1.992899
      dxy     :     1.992899
      f0      :     0.000307  f :     0.002094
      f+1     :     0.000533
      f-1     :     0.000533
      f+2     :     0.000305
      f-2     :     0.000305
      f+3     :     0.000052
      f-3     :     0.000058
      g0      :     0.000002  g :     0.000020
      g+1     :     0.000004
      g-1     :     0.000004
      g+2     :     0.000003
      g-2     :     0.000003
      g+3     :     0.000001
      g-3     :     0.000001
      g+4     :     0.000000
      g-4     :     0.000000
  4 N s       :     2.916710  s :     2.916710
      pz      :     1.291663  p :     3.499079
      px      :     1.103711
      py      :     1.103704
      dz2     :     0.036096  d :     0.163743
      dxz     :     0.028937
      dyz     :     0.028940
      dx2y2   :     0.034885
      dxy     :     0.034884
      f0      :     0.000747  f :     0.008578
      f+1     :     0.000025
      f-1     :     0.000025
      f+2     :     0.002797
      f-2     :     0.002797
      f+3     :     0.000000
      f-3     :     0.002186
  5 H s       :     0.649306  s :     0.649306
      pz      :     0.154326  p :     0.400060
      px      :     0.138531
      py      :     0.107202
      dz2     :     0.009049  d :     0.055666
      dxz     :     0.014538
      dyz     :     0.006427
      dx2y2   :     0.013447
      dxy     :     0.012205
  6 H s       :     0.649307  s :     0.649307
      pz      :     0.154324  p :     0.400054
      px      :     0.091534
      py      :     0.154196
      dz2     :     0.009049  d :     0.055665
      dxz     :     0.002372
      dyz     :     0.018593
      dx2y2   :     0.011584
      dxy     :     0.014068
  7 H s       :     0.649306  s :     0.649306
      pz      :     0.154326  p :     0.400060
      px      :     0.138531
      py      :     0.107202
      dz2     :     0.009049  d :     0.055666
      dxz     :     0.014538
      dyz     :     0.006427
      dx2y2   :     0.013447
      dxy     :     0.012205


                      *****************************
                      * MAYER POPULATION ANALYSIS *
                      *****************************

  NA   - Mulliken gross atomic population
  ZA   - Total nuclear charge
  QA   - Mulliken gross atomic charge
  VA   - Mayer's total valence
  BVA  - Mayer's bonded valence
  FA   - Mayer's free valence

  ATOM       NA         ZA         QA         VA         BVA        FA
  0 Ag    18.5542    19.0000     0.4458     1.1904     1.1904    -0.0000
  1 Ag    18.5541    19.0000     0.4459     1.1904     1.1904    -0.0000
  2 Ag    18.5541    19.0000     0.4459     1.1905     1.1905     0.0000
  3 Ag    18.5299    19.0000     0.4701     1.1522     1.1522     0.0000
  4 N      7.3494     7.0000    -0.3494     3.2311     3.2311     0.0000
  5 H      0.8195     1.0000     0.1805     1.0569     1.0569     0.0000
  6 H      0.8192     1.0000     0.1808     1.0563     1.0563     0.0000
  7 H      0.8195     1.0000     0.1805     1.0569     1.0569    -0.0000

  Mayer bond orders larger than 0.100000
B(  0-Ag,  1-Ag) :   0.3810 B(  0-Ag,  2-Ag) :   0.3810 B(  0-Ag,  3-Ag) :   0.3731 
B(  1-Ag,  2-Ag) :   0.3809 B(  1-Ag,  3-Ag) :   0.3730 B(  2-Ag,  3-Ag) :   0.3730 
B(  4-N ,  5-H ) :   1.0139 B(  4-N ,  6-H ) :   1.0135 B(  4-N ,  7-H ) :   1.0139 


-------
TIMINGS
-------

Total SCF time: 0 days 0 hours 0 min 16 sec 

Total time                  ....      16.425 sec
Sum of individual times     ....      16.144 sec  ( 98.3%)

Fock matrix formation       ....      14.089 sec  ( 85.8%)
  XC integration            ....       1.169 sec  (  8.3% of F)
    Basis function eval.    ....       0.122 sec  ( 10.4% of XC)
    Density eval.           ....       0.228 sec  ( 19.5% of XC)
    XC-Functional eval.     ....       0.054 sec  (  4.6% of XC)
    XC-Potential eval.      ....       0.386 sec  ( 33.0% of XC)
Diagonalization             ....       0.183 sec  (  1.1%)
Density matrix formation    ....       0.019 sec  (  0.1%)
Population analysis         ....       0.021 sec  (  0.1%)
Initial guess               ....       1.317 sec  (  8.0%)
Orbital Transformation      ....       0.000 sec  (  0.0%)
Orbital Orthonormalization  ....       0.000 sec  (  0.0%)
DIIS solution               ....       0.095 sec  (  0.6%)
Grid generation             ....       0.421 sec  (  2.6%)


-------------------------------------------------------------------------------
                          DFT DISPERSION CORRECTION                            
                                                                               
                              DFTD3 V3.1  Rev 1                                
                          USING Becke-Johnson damping                          
-------------------------------------------------------------------------------
The TPSSH functional is recognized
Active option DFTDOPT                   ...         4   

molecular C6(AA) [au] = 5559.125164 


            DFT-D V3
 parameters
 s6 scaling factor         :     1.0000 
 a1 scaling factor         :     0.4529 
 s8 scaling factor         :     2.2382 
 a2 scaling factor         :     4.6550 
 ad hoc parameters k1-k3   :    16.0000     1.3333    -4.0000 

 Edisp/kcal,au: -10.457798324146  -0.016665560666 
 E6   /kcal   :  -3.407946371 
 E8   /kcal   :  -7.049851953 
 % E8         :  67.412391547 

-------------------------   ----------------
Dispersion correction           -0.016665561
-------------------------   ----------------


-------------------------   --------------------
FINAL SINGLE POINT ENERGY      -643.827420291420
-------------------------   --------------------


                            ***************************************
                            *     ORCA property calculations      *
                            ***************************************

                                    ---------------------
                                    Active property flags
                                    ---------------------
   (+) Dipole Moment


------------------------------------------------------------------------------
                       ORCA ELECTRIC PROPERTIES CALCULATION
------------------------------------------------------------------------------

Dipole Moment Calculation                       ... on
Quadrupole Moment Calculation                   ... off
Polarizability Calculation                      ... off
GBWName                                         ... Ag04C2_NH3_F.gbw
Electron density file                           ... Ag04C2_NH3_F.scfp
The origin for moment calculation is the CENTER OF MASS  = ( 0.000000,  0.000000  0.083833)

-------------
DIPOLE MOMENT
-------------
                                X             Y             Z
Electronic contribution:      0.00000       0.00005      41.72738
Nuclear contribution   :      0.00000       0.00000     -43.35494
                        -----------------------------------------
Total Dipole Moment    :      0.00000       0.00005      -1.62756
                        -----------------------------------------
Magnitude (a.u.)       :      1.62756
Magnitude (Debye)      :      4.13693



--------------------
Rotational spectrum 
--------------------
 
Rotational constants in cm-1:     0.020453     0.016499     0.016499 
Rotational constants in MHz :   613.168216   494.640125   494.640113 

 Dipole components along the rotational axes: 
x,y,z [a.u.] :    -1.627559     0.000049     0.000000 
x,y,z [Debye]:    -4.136926     0.000125     0.000000 

 

Timings for individual modules:

Sum of individual times         ...       18.846 sec (=   0.314 min)
GTO integral calculation        ...        2.048 sec (=   0.034 min)  10.9 %
SCF iterations                  ...       16.798 sec (=   0.280 min)  89.1 %
                             ****ORCA TERMINATED NORMALLY****
TOTAL RUN TIME: 0 days 0 hours 0 minutes 19 seconds 351 msec
