
                                 *****************
                                 * O   R   C   A *
                                 *****************

           --- An Ab Initio, DFT and Semiempirical electronic structure package ---

                  #######################################################
                  #                        -***-                        #
                  #          Department of theory and spectroscopy      #
                  #               Directorship: Frank Neese             #
                  #        Max Planck Institute fuer Kohlenforschung    #
                  #                Kaiser Wilhelm Platz 1               #
                  #                 D-45470 Muelheim/Ruhr               #
                  #                      Germany                        #
                  #                                                     #
                  #                  All rights reserved                #
                  #                        -***-                        #
                  #######################################################


                         Program Version 4.2.0 -  RELEASE  -


 With contributions from (in alphabetic order):
   Daniel Aravena         : Magnetic Suceptibility
   Michael Atanasov       : Ab Initio Ligand Field Theory (pilot matlab implementation)
   Alexander A. Auer      : GIAO ZORA, VPT2
   Ute Becker             : Parallelization
   Giovanni Bistoni       : ED, misc. LED, open-shell LED, HFLED
   Martin Brehm           : Molecular dynamics
   Dmytro Bykov           : SCF Hessian
   Vijay G. Chilkuri      : MRCI spin determinant printing, contributions to CSF-ICE
   Dipayan Datta          : RHF DLPNO-CCSD density
   Achintya Kumar Dutta   : EOM-CC, STEOM-CC
   Dmitry Ganyushin       : Spin-Orbit,Spin-Spin,Magnetic field MRCI
   Miquel Garcia          : C-PCM Hessian, Gaussian charge scheme
   Yang Guo               : DLPNO-NEVPT2, CIM, IAO-localization
   Andreas Hansen         : Spin unrestricted coupled pair/coupled cluster methods
   Benjamin Helmich-Paris : CASSCF linear response (MC-RPA)
   Lee Huntington         : MR-EOM, pCC
   Robert Izsak           : Overlap fitted RIJCOSX, COSX-SCS-MP3, EOM
   Christian Kollmar      : KDIIS, OOCD, Brueckner-CCSD(T), CCSD density
   Simone Kossmann        : Meta GGA functionals, TD-DFT gradient, OOMP2, MP2 Hessian
   Martin Krupicka        : AUTO-CI
   Lucas Lang             : DCDCAS
   Dagmar Lenk            : GEPOL surface, SMD
   Dimitrios Liakos       : Extrapolation schemes; Compound Job, initial MDCI parallelization
   Dimitrios Manganas     : Further ROCIS development; embedding schemes
   Dimitrios Pantazis     : SARC Basis sets
   Taras Petrenko         : DFT Hessian,TD-DFT gradient, ASA, ECA, R-Raman, ABS, FL, XAS/XES, NRVS
   Peter Pinski           : DLPNO-MP2, DLPNO-MP2 Gradient
   Christoph Reimann      : Effective Core Potentials
   Marius Retegan         : Local ZFS, SOC
   Christoph Riplinger    : Optimizer, TS searches, QM/MM, DLPNO-CCSD(T), (RO)-DLPNO pert. Triples
   Tobias Risthaus        : Range-separated hybrids, TD-DFT gradient, RPA, STAB
   Michael Roemelt        : Original ROCIS implementation
   Masaaki Saitow         : Open-shell DLPNO-CCSD energy and density
   Barbara Sandhoefer     : DKH picture change effects
   Avijit Sen             : IP-ROCIS
   Kantharuban Sivalingam : CASSCF convergence, NEVPT2, FIC-MRCI
   Bernardo de Souza      : ESD, SOC TD-DFT
   Georgi Stoychev        : AutoAux, RI-MP2 NMR
   Willem Van den Heuvel  : Paramagnetic NMR
   Boris Wezisla          : Elementary symmetry handling
   Frank Wennmohs         : Technical directorship


 We gratefully acknowledge several colleagues who have allowed us to
 interface, adapt or use parts of their codes:
   Stefan Grimme, W. Hujo, H. Kruse,             : VdW corrections, initial TS optimization,
                  C. Bannwarth                     DFT functionals, gCP, sTDA/sTD-DF
   Ed Valeev, F. Pavosevic, A. Kumar             : LibInt (2-el integral package), F12 methods
   Garnet Chan, S. Sharma, J. Yang, R. Olivares  : DMRG
   Ulf Ekstrom                                   : XCFun DFT Library
   Mihaly Kallay                                 : mrcc  (arbitrary order and MRCC methods)
   Andreas Klamt, Michael Diedenhofen            : otool_cosmo (COSMO solvation model)
   Jiri Pittner, Ondrej Demel                    : Mk-CCSD
   Frank Weinhold                                : gennbo (NPA and NBO analysis)
   Christopher J. Cramer and Donald G. Truhlar   : smd solvation model
   Lars Goerigk                                  : TD-DFT with DH, B97 family of functionals
   V. Asgeirsson, H. Jonsson                     : NEB implementation
   FAccTs GmbH                                   : IRC, NEB, NEB-TS, Multilevel, MM, QM/MM, CI optimization
   S Lehtola, MJT Oliveira, MAL Marques          : LibXC Library


 Your calculation uses the libint2 library for the computation of 2-el integrals
 For citations please refer to: http://libint.valeyev.net

 Your ORCA version has been built with support for libXC version: 4.2.3
 For citations please refer to: https://tddft.org/programs/libxc/

 This ORCA versions uses:
   CBLAS   interface :  Fast vector & matrix operations
   LAPACKE interface :  Fast linear algebra routines
   SCALAPACK package :  Parallel linear algebra routines


Your calculation utilizes the atom-pairwise dispersion correction
with the Becke-Johnson damping scheme (D3BJ)
Cite in your paper:
S.Grimme, S.Ehrlich, L.Goerigk, J Comput Chem, (2011), 32, 1456–1465 
S.Grimme, J.Antony, S.Ehrlich and H.Krieg, J.Chem.Phys., 132, (2010), 154104 
   

----- Orbital basis set information -----
Your calculation utilizes the basis: def2-TZVPPD
   F. Weigend and R. Ahlrichs, Phys. Chem. Chem. Phys. 7, 3297 (2005).
   D. Rappoport and F. Furche, J. Chem. Phys. 133 134105 (2010).

----- AuxJK basis set information -----
Your calculation utilizes the auxiliary basis: def2/JK
   H-Ba, Hf-Rn: F. Weigend, J. Comput. Chem. 29, 167 (2008).

cite the ECPs for Ag [Def2-ECP] as follows:
Ce-Yb(ecp-28): M. Dolg, H. Stoll, H.Preuss, J. Chem. Phys., 1989, 90, 1730-1734.
Y-Cd(ecp-28), Hf-Hg(ecp-46): D. Andrae,U. Haeussermann, M. Dolg, H. Stoll, H. Preuss, Theor. Chim. Acta, 1990, 77, 123-141.
In-Sb(ecp-28), Tl-Bi(ecp-46): B. Metz, H. Stoll, M. Dolg, J. Chem. Phys., 2000, 113, 2563-2569.
Te-Xe(ecp-28), Po-Rn(ecp-46): K. A. Peterson, D. Figgen, E. Goll, H. Stoll, M. Dolg, J. Chem. Phys., 2003, 119, 11113-11123.
Rb(ecp-28), Cs(ecp-46): T. Leininger, A. Nicklass, W. Kuechle, H. Stoll, M. Dolg, A. Bergner, Chem. Phys. Lett., 1996, 255, 274-280.
Sr(ecp-28), Ba(ecp-46): M. Kaupp, P. V. Schleyer, H. Stoll and H. Preuss, J. Chem. Phys., 1991, 94, 1360-1366.
La(ecp-46): M. Dolg, H. Stoll, A. Savin, H. Preuss, Theor. Chim. Acta, 1989, 75, 173-194.
Lu(ecp-28): X. Cao, M. Dolg, J. Chem. Phys., 2001, 115, 7348-7355.

ECP parameters for Ag [Def2-ECP] have been obtained from:
TURBOMOLE (7.0.2)

================================================================================
                                        WARNINGS
                       Please study these warnings very carefully!
================================================================================


INFO   : the flag for use of LIBINT has been found!

================================================================================
                                       INPUT FILE
================================================================================
NAME = Ag04C2_NH3_A.in
|  1> #
|  2> # Ag04C2_NH3_A TPSSh-D3BJ/Def2-TZVPPD
|  3> #
|  4> ! tpssh d3bj def2-tzvppd def2/jk grid4 nofinalgrid
|  5> 
|  6> *xyz 2 1
|  7> Ag      -0.268639    1.507918    0.000000 
|  8> Ag       1.705052   -0.492854   -0.000000 
|  9> Ag      -0.647170   -0.911099    1.379441 
| 10> Ag      -0.647170   -0.911099   -1.379441 
| 11> N       -0.647170    3.675657    0.000000 
| 12> H       -0.250844    4.149729    0.817426 
| 13> H       -0.250844    4.149729   -0.817426 
| 14> H       -1.645581    3.906275    0.000000 
| 15> *
| 16> 
| 17> %maxcore 5000
| 18> 
| 19> %pal
| 20> nprocs = 24
| 21> end
| 22> 
| 23> 
| 24>                          ****END OF INPUT****
================================================================================

                       ****************************
                       * Single Point Calculation *
                       ****************************

---------------------------------
CARTESIAN COORDINATES (ANGSTROEM)
---------------------------------
  Ag    -0.268639    1.507918    0.000000
  Ag     1.705052   -0.492854   -0.000000
  Ag    -0.647170   -0.911099    1.379441
  Ag    -0.647170   -0.911099   -1.379441
  N     -0.647170    3.675657    0.000000
  H     -0.250844    4.149729    0.817426
  H     -0.250844    4.149729   -0.817426
  H     -1.645581    3.906275    0.000000

----------------------------
CARTESIAN COORDINATES (A.U.)
----------------------------
  NO LB      ZA    FRAG     MASS         X           Y           Z
   0 Ag   19.0000*   0   107.870   -0.507654    2.849552    0.000000
   1 Ag   19.0000*   0   107.870    3.222081   -0.931359   -0.000000
   2 Ag   19.0000*   0   107.870   -1.222974   -1.721728    2.606766
   3 Ag   19.0000*   0   107.870   -1.222974   -1.721728   -2.606766
   4 N     7.0000    0    14.007   -1.222974    6.945985    0.000000
   5 H     1.0000    0     1.008   -0.474026    7.841851    1.544711
   6 H     1.0000    0     1.008   -0.474026    7.841851   -1.544711
   7 H     1.0000    0     1.008   -3.109697    7.381790    0.000000
* core charge reduced due to ECP

--------------------------------
INTERNAL COORDINATES (ANGSTROEM)
--------------------------------
 Ag     0   0   0     0.000000000000     0.00000000     0.00000000
 Ag     1   0   0     2.810434976915     0.00000000     0.00000000
 Ag     2   1   0     2.758756004033    60.60322075     0.00000000
 Ag     2   1   3     2.758756004033    60.60322075    70.04806330
 N      1   2   3     2.200540408646   145.29552250   144.97596835
 H      5   1   2     1.024696942972   112.90585165   300.00135613
 H      5   1   2     1.024696942972   112.90585165    59.99864387
 H      5   1   2     1.024699559308   112.91148512   180.00000000

---------------------------
INTERNAL COORDINATES (A.U.)
---------------------------
 Ag     0   0   0     0.000000000000     0.00000000     0.00000000
 Ag     1   0   0     5.310952423562     0.00000000     0.00000000
 Ag     2   1   0     5.213293317934    60.60322075     0.00000000
 Ag     2   1   3     5.213293317934    60.60322075    70.04806330
 N      1   2   3     4.158418718967   145.29552250   144.97596835
 H      5   1   2     1.936396592483   112.90585165   300.00135613
 H      5   1   2     1.936396592483   112.90585165    59.99864387
 H      5   1   2     1.936401536641   112.91148512   180.00000000

---------------------
BASIS SET INFORMATION
---------------------
There are 3 groups of distinct atoms

 Group   1 Type Ag  : 7s7p6d2f1g contracted to 6s4p3d2f1g pattern {211111/4111/411/11/1}
 Group   2 Type N   : 12s6p3d1f contracted to 6s3p3d1f pattern {621111/411/111/1}
 Group   3 Type H   : 5s3p1d contracted to 3s3p1d pattern {311/111/1}

Atom   0Ag   basis set group =>   1
Atom   1Ag   basis set group =>   1
Atom   2Ag   basis set group =>   1
Atom   3Ag   basis set group =>   1
Atom   4N    basis set group =>   2
Atom   5H    basis set group =>   3
Atom   6H    basis set group =>   3
Atom   7H    basis set group =>   3
----------------------------------
AUXILIARY/JK BASIS SET INFORMATION
----------------------------------
There are 3 groups of distinct atoms

 Group   1 Type Ag  : 13s12p10d9f6g3h2i contracted to 11s10p9d8f6g3h2i pattern {31111111111/3111111111/211111111/21111111/111111/111/11}
 Group   2 Type N   : 14s10p6d2f1g contracted to 10s8p4d2f1g pattern {5111111111/31111111/3111/11/1}
 Group   3 Type H   : 4s2p2d contracted to 2s2p2d pattern {31/11/11}

Atom   0Ag   basis set group =>   1
Atom   1Ag   basis set group =>   1
Atom   2Ag   basis set group =>   1
Atom   3Ag   basis set group =>   1
Atom   4N    basis set group =>   2
Atom   5H    basis set group =>   3
Atom   6H    basis set group =>   3
Atom   7H    basis set group =>   3
-------------------------
ECP PARAMETER INFORMATION
-------------------------

 Group 1, Type Ag ECP Def2-ECP (replacing 28 core electrons, lmax=3)

Atom   0Ag   ECP group =>   1
Atom   1Ag   ECP group =>   1
Atom   2Ag   ECP group =>   1
Atom   3Ag   ECP group =>   1



           ************************************************************
           *        Program running with 24 parallel MPI-processes    *
           *              working on a common directory               *
           ************************************************************
------------------------------------------------------------------------------
                           ORCA GTO INTEGRAL CALCULATION
------------------------------------------------------------------------------

                         BASIS SET STATISTICS AND STARTUP INFO

 # of primitive gaussian shells          ...  141
 # of primitive gaussian functions       ...  433
 # of contracted shells                  ...   98
 # of contracted basis functions         ...  312
 Highest angular momentum                ...    4
 Maximum contraction depth               ...    6
 Integral package used                   ... LIBINT
 Integral threshhold            Thresh   ...  1.000e-10
 Primitive cut-off              TCut     ...  1.000e-11


------------------------------ INTEGRAL EVALUATION ----------------------------


 * One electron integrals 

   ECP integrals                         ... done
 Pre-screening matrix                    ... done
 Shell pair data                         ... done (   0.001 sec)



           ************************************************************
           *        Program running with 24 parallel MPI-processes    *
           *              working on a common directory               *
           ************************************************************
-------------------------------------------------------------------------------
                                 ORCA SCF
-------------------------------------------------------------------------------

------------
SCF SETTINGS
------------
Hamiltonian:
 Density Functional     Method          .... DFT(GTOs)
 Exchange Functional    Exchange        .... TPSS
 Correlation Functional Correlation     .... TPSS
 LDA part of GGA corr.  LDAOpt          .... PW91-LDA
 Gradients option       PostSCFGGA      .... off
 Hybrid DFT is turned on
   Fraction HF Exchange ScalHFX         ....  0.100000
   Scaling of DF-GGA-X  ScalDFX         ....  0.900000
   Scaling of DF-GGA-C  ScalDFC         ....  1.000000
   Scaling of DF-LDA-C  ScalLDAC        ....  1.000000
   Perturbative correction              ....  0.000000
   Density functional embedding theory  .... OFF
   NL short-range parameter             ....  5.200000


General Settings:
 Integral files         IntName         .... Ag04C2_NH3_A
 Hartree-Fock type      HFTyp           .... RHF
 Total Charge           Charge          ....    2
 Multiplicity           Mult            ....    1
 Number of Electrons    NEL             ....   84
 Basis Dimension        Dim             ....  312
 Nuclear Repulsion      ENuc            ....    527.7252334619 Eh

Convergence Acceleration:
 DIIS                   CNVDIIS         .... on
   Start iteration      DIISMaxIt       ....    12
   Startup error        DIISStart       ....  0.200000
   # of expansion vecs  DIISMaxEq       ....     5
   Bias factor          DIISBfac        ....   1.050
   Max. coefficient     DIISMaxC        ....  10.000
 Newton-Raphson         CNVNR           .... off
 SOSCF                  CNVSOSCF        .... off
 Level Shifting         CNVShift        .... on
   Level shift para.    LevelShift      ....    0.2500
   Turn off err/grad.   ShiftErr        ....    0.0010
 Zerner damping         CNVZerner       .... off
 Static damping         CNVDamp         .... on
   Fraction old density DampFac         ....    0.7000
   Max. Damping (<1)    DampMax         ....    0.9800
   Min. Damping (>=0)   DampMin         ....    0.0000
   Turn off err/grad.   DampErr         ....    0.1000
 Fernandez-Rico         CNVRico         .... off

SCF Procedure:
 Maximum # iterations   MaxIter         ....   125
 SCF integral mode      SCFMode         .... Direct
   Integral package                     .... LIBINT
 Reset frequency        DirectResetFreq ....    20
 Integral Threshold     Thresh          ....  1.000e-10 Eh
 Primitive CutOff       TCut            ....  1.000e-11 Eh

Convergence Tolerance:
 Convergence Check Mode ConvCheckMode   .... Total+1el-Energy
 Convergence forced     ConvForced      .... 0
 Energy Change          TolE            ....  1.000e-06 Eh
 1-El. energy change                    ....  1.000e-03 Eh
 DIIS Error             TolErr          ....  1.000e-06


Diagonalization of the overlap matrix:
Smallest eigenvalue                        ... 2.012e-04
Time for diagonalization                   ...    0.014 sec
Threshold for overlap eigenvalues          ... 1.000e-08
Number of eigenvalues below threshold      ... 0
Time for construction of square roots      ...    0.011 sec
Total time needed                          ...    0.025 sec

-------------------
DFT GRID GENERATION
-------------------

General Integration Accuracy     IntAcc      ...  4.670
Radial Grid Type                 RadialGrid  ... Gauss-Chebyshev
Angular Grid (max. acc.)         AngularGrid ... Lebedev-302
Angular grid pruning method      GridPruning ... 3 (G Style)
Weight generation scheme         WeightScheme... Becke
Basis function cutoff            BFCut       ...    1.0000e-10
Integration weight cutoff        WCut        ...    1.0000e-14
Grids for H and He will be reduced by one unit

# of grid points (after initial pruning)     ...  59026 (   0.0 sec)
# of grid points (after weights+screening)   ...  57099 (   0.0 sec)
nearest neighbour list constructed           ...    0.0 sec
Grid point re-assignment to atoms done       ...    0.0 sec
Grid point division into batches done        ...    0.3 sec
Reduced shell lists constructed in    0.4 sec

Total number of grid points                  ...    57099
Total number of batches                      ...      896
Average number of points per batch           ...       63
Average number of grid points per atom       ...     7137
Average number of shells per batch           ...    66.36 (67.71%)
Average number of basis functions per batch  ...   211.18 (67.69%)
Average number of large shells per batch     ...    53.03 (79.91%)
Average number of large basis fcns per batch ...   162.31 (76.86%)
Maximum spatial batch extension              ...   4.09,  2.73,  4.73 au
Average spatial batch extension              ...   0.10,  0.09,  0.09 au

Time for grid setup =    0.423 sec

------------------------------
INITIAL GUESS: MODEL POTENTIAL
------------------------------
Loading Hartree-Fock densities                     ... done
  calling /sw/apps/orca/orca_4_2_0_linux_x86-64_openmpi314/orca Ag04C2_NH3_A_atom47.inp > Ag04C2_NH3_A_atom47.out in order to generate an atomic fitting density for atom 0 (Ag with ECP) on-the-fly... 
    atom 0 (Ag), assumed electronic state with S=2: 1s2 2s2 2p6 3s2 3p6 4s2 3d10 4p6 5s2 4d9           ... done
Calculating cut-offs                               ... done
Setting up the integral package                    ... done
Initializing the effective Hamiltonian             ... done
Starting the Coulomb interaction                   ... done (   0.0 sec)
Reading the grid                                   ... done
Mapping shells                                     ... done
Starting the XC term evaluation                    ... done (   0.0 sec)
  promolecular density results
     # of electrons  =    198.000320224
     EX              =   -581.215961798
     EC              =    -10.296850604
     EX+EC           =   -591.512812402
Transforming the Hamiltonian                       ... done (   0.0 sec)
Diagonalizing the Hamiltonian                      ... done (   0.0 sec)
Back transforming the eigenvectors                 ... done (   0.0 sec)
Now organizing SCF variables                       ... done
                      ------------------
                      INITIAL GUESS DONE (   1.7 sec)
                      ------------------
--------------
SCF ITERATIONS
--------------
ITER       Energy         Delta-E        Max-DP      RMS-DP      [F,P]     Damp
               ***  Starting incremental Fock matrix formation  ***
  0   -643.5007296370   0.000000000000 0.08542794  0.00149943  0.5114258 0.7000
  1   -643.6698885030  -0.169158865961 0.03984836  0.00083931  0.3356676 0.7000
  2   -643.7266747188  -0.056786215896 0.01503158  0.00032858  0.2229149 0.7000
                               ***Turning on DIIS***
  3   -643.7626356374  -0.035960918575 0.00943892  0.00016928  0.1526773 0.7000
  4   -643.7893628332  -0.026727195741 0.00597662  0.00012860  0.1066107 0.7000
  5   -643.8082545380  -0.018891704872 0.01379303  0.00032573  0.0751299 0.0000
  6   -643.8522077382  -0.043953200122 0.00507639  0.00004968  0.0005437 0.0000
  7   -643.8522177625  -0.000010024363 0.00095077  0.00001527  0.0007614 0.0000
  8   -643.8522198190  -0.000002056512 0.00046932  0.00000713  0.0005968 0.0000
  9   -643.8522210403  -0.000001221241 0.00036119  0.00000288  0.0002227 0.0000
                 **** Energy Check signals convergence ****

               *****************************************************
               *                     SUCCESS                       *
               *           SCF CONVERGED AFTER  10 CYCLES          *
               *****************************************************


----------------
TOTAL SCF ENERGY
----------------

Total Energy       :         -643.85222110 Eh          -17520.10964 eV

Components:
Nuclear Repulsion  :          527.72523346 Eh           14360.13366 eV
Electronic Energy  :        -1171.57745456 Eh          -31880.24330 eV
One Electron Energy:        -2145.95953931 Eh          -58394.52779 eV
Two Electron Energy:          974.38208475 Eh           26514.28449 eV

Virial components:
Potential Energy   :         -924.81221093 Eh          -25165.41964 eV
Kinetic Energy     :          280.95998983 Eh            7645.31000 eV
Virial Ratio       :            3.29161533


DFT components:
N(Alpha)           :       42.000014549990 electrons
N(Beta)            :       42.000014549990 electrons
N(Total)           :       84.000029099979 electrons
E(X)               :      -54.363490524886 Eh       
E(C)               :       -3.601553916730 Eh       
E(XC)              :      -57.965044441616 Eh       
DFET-embed. en.    :        0.000000000000 Eh       

---------------
SCF CONVERGENCE
---------------

  Last Energy change         ...   -6.1330e-08  Tolerance :   1.0000e-06
  Last MAX-Density change    ...    1.3214e-04  Tolerance :   1.0000e-05
  Last RMS-Density change    ...    1.2835e-06  Tolerance :   1.0000e-06
  Last DIIS Error            ...    1.0828e-04  Tolerance :   1.0000e-06

             **** THE GBW FILE WAS UPDATED (Ag04C2_NH3_A.gbw) ****
             **** DENSITY FILE WAS UPDATED (Ag04C2_NH3_A.scfp) ****
             **** ENERGY FILE WAS UPDATED (Ag04C2_NH3_A.en.tmp) ****
             **** THE GBW FILE WAS UPDATED (Ag04C2_NH3_A.gbw) ****
             **** DENSITY FILE WAS UPDATED (Ag04C2_NH3_A.scfp) ****
----------------
ORBITAL ENERGIES
----------------

  NO   OCC          E(Eh)            E(eV) 
   0   2.0000     -14.573689      -396.5702 
   1   2.0000      -4.016531      -109.2954 
   2   2.0000      -4.016236      -109.2873 
   3   2.0000      -4.016235      -109.2873 
   4   2.0000      -4.003685      -108.9458 
   5   2.0000      -2.625168       -71.4345 
   6   2.0000      -2.622877       -71.3721 
   7   2.0000      -2.622874       -71.3720 
   8   2.0000      -2.621280       -71.3287 
   9   2.0000      -2.621272       -71.3284 
  10   2.0000      -2.621267       -71.3283 
  11   2.0000      -2.620524       -71.3081 
  12   2.0000      -2.620506       -71.3076 
  13   2.0000      -2.620503       -71.3075 
  14   2.0000      -2.609193       -70.9998 
  15   2.0000      -2.607558       -70.9553 
  16   2.0000      -2.607557       -70.9552 
  17   2.0000      -1.161442       -31.6045 
  18   2.0000      -0.765912       -20.8415 
  19   2.0000      -0.765908       -20.8414 
  20   2.0000      -0.708402       -19.2766 
  21   2.0000      -0.681312       -18.5394 
  22   2.0000      -0.673211       -18.3190 
  23   2.0000      -0.673198       -18.3187 
  24   2.0000      -0.663288       -18.0490 
  25   2.0000      -0.663287       -18.0490 
  26   2.0000      -0.661757       -18.0073 
  27   2.0000      -0.654975       -17.8228 
  28   2.0000      -0.649535       -17.6748 
  29   2.0000      -0.649534       -17.6747 
  30   2.0000      -0.634069       -17.2539 
  31   2.0000      -0.633200       -17.2303 
  32   2.0000      -0.633187       -17.2299 
  33   2.0000      -0.631515       -17.1844 
  34   2.0000      -0.631505       -17.1841 
  35   2.0000      -0.623638       -16.9701 
  36   2.0000      -0.623626       -16.9697 
  37   2.0000      -0.615189       -16.7401 
  38   2.0000      -0.609099       -16.5744 
  39   2.0000      -0.609099       -16.5744 
  40   2.0000      -0.587374       -15.9833 
  41   2.0000      -0.575637       -15.6639 
  42   0.0000      -0.420610       -11.4454 
  43   0.0000      -0.420601       -11.4451 
  44   0.0000      -0.392408       -10.6780 
  45   0.0000      -0.304542        -8.2870 
  46   0.0000      -0.295525        -8.0416 
  47   0.0000      -0.295524        -8.0416 
  48   0.0000      -0.281858        -7.6697 
  49   0.0000      -0.281849        -7.6695 
  50   0.0000      -0.263543        -7.1714 
  51   0.0000      -0.198386        -5.3984 
  52   0.0000      -0.180748        -4.9184 
  53   0.0000      -0.180730        -4.9179 
  54   0.0000      -0.167660        -4.5623 
  55   0.0000      -0.167118        -4.5475 
  56   0.0000      -0.167108        -4.5472 
  57   0.0000      -0.154141        -4.1944 
  58   0.0000      -0.148982        -4.0540 
  59   0.0000      -0.148958        -4.0534 
  60   0.0000      -0.112152        -3.0518 
  61   0.0000      -0.112045        -3.0489 
  62   0.0000      -0.110731        -3.0131 
  63   0.0000      -0.099831        -2.7165 
  64   0.0000      -0.084964        -2.3120 
  65   0.0000      -0.077549        -2.1102 
  66   0.0000      -0.077548        -2.1102 
  67   0.0000      -0.064813        -1.7636 
  68   0.0000      -0.064767        -1.7624 
  69   0.0000      -0.055116        -1.4998 
  70   0.0000      -0.055038        -1.4976 
  71   0.0000      -0.050673        -1.3789 
  72   0.0000      -0.012511        -0.3404 
  73   0.0000      -0.005016        -0.1365 
  74   0.0000      -0.004781        -0.1301 
  75   0.0000       0.011614         0.3160 
  76   0.0000       0.025148         0.6843 
  77   0.0000       0.025257         0.6873 
  78   0.0000       0.037858         1.0302 
  79   0.0000       0.037909         1.0316 
  80   0.0000       0.043895         1.1944 
  81   0.0000       0.062120         1.6904 
  82   0.0000       0.068819         1.8727 
  83   0.0000       0.068823         1.8728 
  84   0.0000       0.070127         1.9083 
  85   0.0000       0.091125         2.4796 
  86   0.0000       0.094896         2.5822 
  87   0.0000       0.095220         2.5911 
  88   0.0000       0.127094         3.4584 
  89   0.0000       0.156219         4.2509 
  90   0.0000       0.156250         4.2518 
  91   0.0000       0.197020         5.3612 
  92   0.0000       0.203399         5.5348 
  93   0.0000       0.203599         5.5402 
  94   0.0000       0.211646         5.7592 
  95   0.0000       0.212096         5.7714 
  96   0.0000       0.213840         5.8189 
  97   0.0000       0.238395         6.4871 
  98   0.0000       0.238614         6.4930 
  99   0.0000       0.260390         7.0856 
 100   0.0000       0.289818         7.8863 
 101   0.0000       0.289941         7.8897 
 102   0.0000       0.330744         9.0000 
 103   0.0000       0.335411         9.1270 
 104   0.0000       0.335559         9.1310 
 105   0.0000       0.360966         9.8224 
 106   0.0000       0.361058         9.8249 
 107   0.0000       0.406564        11.0632 
 108   0.0000       0.407799        11.0968 
 109   0.0000       0.428087        11.6488 
 110   0.0000       0.428245        11.6531 
 111   0.0000       0.438086        11.9209 
 112   0.0000       0.448663        12.2087 
 113   0.0000       0.448731        12.2106 
 114   0.0000       0.507909        13.8209 
 115   0.0000       0.593274        16.1438 
 116   0.0000       0.593732        16.1563 
 117   0.0000       0.616268        16.7695 
 118   0.0000       0.784559        21.3489 
 119   0.0000       0.834101        22.6971 
 120   0.0000       0.834176        22.6991 
 121   0.0000       0.882699        24.0195 
 122   0.0000       0.883180        24.0325 
 123   0.0000       0.883370        24.0377 
 124   0.0000       0.947495        25.7827 
 125   0.0000       0.947496        25.7827 
 126   0.0000       1.133883        30.8545 
 127   0.0000       1.167805        31.7776 
 128   0.0000       1.167822        31.7780 
 129   0.0000       1.190510        32.3954 
 130   0.0000       1.193558        32.4784 
 131   0.0000       1.205072        32.7917 
 132   0.0000       1.205079        32.7919 
 133   0.0000       1.211957        32.9790 
 134   0.0000       1.212065        32.9820 
 135   0.0000       1.223228        33.2857 
 136   0.0000       1.224797        33.3284 
 137   0.0000       1.228797        33.4373 
 138   0.0000       1.228798        33.4373 
 139   0.0000       1.234416        33.5902 
 140   0.0000       1.241537        33.7839 
 141   0.0000       1.241576        33.7850 
 142   0.0000       1.249066        33.9888 
 143   0.0000       1.250270        34.0216 
 144   0.0000       1.250480        34.0273 
 145   0.0000       1.259563        34.2744 
 146   0.0000       1.265750        34.4428 
 147   0.0000       1.268159        34.5084 
 148   0.0000       1.268182        34.5090 
 149   0.0000       1.273028        34.6409 
 150   0.0000       1.287005        35.0212 
 151   0.0000       1.287065        35.0228 
 152   0.0000       1.294670        35.2298 
 153   0.0000       1.294749        35.2319 
 154   0.0000       1.310945        35.6726 
 155   0.0000       1.327199        36.1149 
 156   0.0000       1.327201        36.1150 
 157   0.0000       1.338812        36.4309 
 158   0.0000       1.404872        38.2285 
 159   0.0000       1.404889        38.2290 
 160   0.0000       1.417407        38.5696 
 161   0.0000       1.417415        38.5698 
 162   0.0000       1.425081        38.7784 
 163   0.0000       1.461372        39.7660 
 164   0.0000       1.461478        39.7688 
 165   0.0000       1.523389        41.4535 
 166   0.0000       1.535432        41.7812 
 167   0.0000       1.535491        41.7828 
 168   0.0000       1.550798        42.1994 
 169   0.0000       1.582088        43.0508 
 170   0.0000       1.582252        43.0553 
 171   0.0000       1.638896        44.5966 
 172   0.0000       1.720081        46.8058 
 173   0.0000       1.730233        47.0820 
 174   0.0000       1.730342        47.0850 
 175   0.0000       1.747624        47.5553 
 176   0.0000       1.758221        47.8436 
 177   0.0000       1.758373        47.8478 
 178   0.0000       1.785273        48.5797 
 179   0.0000       1.789256        48.6881 
 180   0.0000       1.789320        48.6899 
 181   0.0000       1.832708        49.8705 
 182   0.0000       1.832747        49.8716 
 183   0.0000       1.840117        50.0721 
 184   0.0000       1.840535        50.0835 
 185   0.0000       1.840596        50.0852 
 186   0.0000       1.852238        50.4020 
 187   0.0000       1.864816        50.7442 
 188   0.0000       1.864976        50.7486 
 189   0.0000       1.905914        51.8625 
 190   0.0000       2.076175        56.4956 
 191   0.0000       2.076972        56.5173 
 192   0.0000       2.211690        60.1831 
 193   0.0000       2.312044        62.9139 
 194   0.0000       2.312055        62.9142 
 195   0.0000       2.320319        63.1391 
 196   0.0000       2.428913        66.0941 
 197   0.0000       2.453198        66.7549 
 198   0.0000       2.453327        66.7584 
 199   0.0000       2.511610        68.3444 
 200   0.0000       2.559641        69.6514 
 201   0.0000       2.648028        72.0565 
 202   0.0000       2.648200        72.0612 
 203   0.0000       2.905286        79.0569 
 204   0.0000       2.951116        80.3039 
 205   0.0000       3.021756        82.2262 
 206   0.0000       3.021760        82.2263 
 207   0.0000       3.091423        84.1219 
 208   0.0000       3.091509        84.1242 
 209   0.0000       3.216881        87.5358 
 210   0.0000       3.249958        88.4359 
 211   0.0000       3.249977        88.4364 
 212   0.0000       3.636883        98.9646 
 213   0.0000       3.636890        98.9648 
 214   0.0000       3.703775       100.7848 
 215   0.0000       3.746008       101.9340 
 216   0.0000       3.746077       101.9360 
 217   0.0000       3.820998       103.9746 
 218   0.0000       3.878474       105.5386 
 219   0.0000       3.878569       105.5412 
 220   0.0000       4.073109       110.8349 
 221   0.0000       4.198907       114.2581 
 222   0.0000       4.199054       114.2621 
 223   0.0000       4.259562       115.9086 
 224   0.0000       4.395176       119.5988 
 225   0.0000       4.426912       120.4624 
 226   0.0000       4.431592       120.5897 
 227   0.0000       4.431778       120.5948 
 228   0.0000       4.441888       120.8699 
 229   0.0000       4.441928       120.8710 
 230   0.0000       4.451713       121.1373 
 231   0.0000       4.457304       121.2894 
 232   0.0000       4.457322       121.2899 
 233   0.0000       4.457744       121.3014 
 234   0.0000       4.467584       121.5691 
 235   0.0000       4.470322       121.6436 
 236   0.0000       4.491194       122.2116 
 237   0.0000       4.491388       122.2169 
 238   0.0000       4.498262       122.4039 
 239   0.0000       4.505989       122.6142 
 240   0.0000       4.506296       122.6225 
 241   0.0000       4.508605       122.6854 
 242   0.0000       4.517452       122.9261 
 243   0.0000       4.517749       122.9342 
 244   0.0000       4.518899       122.9655 
 245   0.0000       4.518978       122.9676 
 246   0.0000       4.594909       125.0338 
 247   0.0000       4.595297       125.0444 
 248   0.0000       4.644036       126.3706 
 249   0.0000       4.657056       126.7249 
 250   0.0000       4.660958       126.8311 
 251   0.0000       4.661005       126.8324 
 252   0.0000       4.723954       128.5453 
 253   0.0000       4.724181       128.5515 
 254   0.0000       4.889260       133.0435 
 255   0.0000       4.977637       135.4484 
 256   0.0000       4.977659       135.4490 
 257   0.0000       5.060779       137.7108 
 258   0.0000       5.213796       141.8746 
 259   0.0000       5.214222       141.8862 
 260   0.0000       5.214617       141.8969 
 261   0.0000       5.214663       141.8982 
 262   0.0000       5.214888       141.9043 
 263   0.0000       5.214927       141.9054 
 264   0.0000       5.215067       141.9092 
 265   0.0000       5.215371       141.9175 
 266   0.0000       5.215466       141.9200 
 267   0.0000       5.215698       141.9264 
 268   0.0000       5.216110       141.9376 
 269   0.0000       5.216273       141.9420 
 270   0.0000       5.216834       141.9573 
 271   0.0000       5.217267       141.9690 
 272   0.0000       5.217289       141.9696 
 273   0.0000       5.217584       141.9777 
 274   0.0000       5.217718       141.9813 
 275   0.0000       5.217761       141.9825 
 276   0.0000       5.218097       141.9916 
 277   0.0000       5.218532       142.0035 
 278   0.0000       5.218590       142.0051 
 279   0.0000       5.220086       142.0458 
 280   0.0000       5.220268       142.0507 
 281   0.0000       5.220718       142.0630 
 282   0.0000       5.225331       142.1885 
 283   0.0000       5.225609       142.1961 
 284   0.0000       5.229372       142.2984 
 285   0.0000       5.234256       142.4314 
 286   0.0000       5.234559       142.4396 
 287   0.0000       5.234949       142.4502 
 288   0.0000       5.237453       142.5183 
 289   0.0000       5.237681       142.5245 
 290   0.0000       5.238767       142.5541 
 291   0.0000       5.255804       143.0177 
 292   0.0000       5.265351       143.2775 
 293   0.0000       5.265434       143.2797 
 294   0.0000       5.420888       147.5099 
 295   0.0000       5.618081       152.8757 
 296   0.0000       5.618862       152.8970 
 297   0.0000       5.618906       152.8982 
 298   0.0000       5.755494       156.6150 
 299   0.0000       5.755566       156.6169 
 300   0.0000       6.286936       171.0762 
 301   0.0000       6.464995       175.9214 
 302   0.0000       6.465067       175.9234 
 303   0.0000      32.501543       884.4119 
 304   0.0000      33.097244       900.6218 
 305   0.0000      33.444565       910.0729 
 306   0.0000      33.444889       910.0817 
 307   0.0000      33.562034       913.2694 
 308   0.0000     110.438722      3005.1904 
 309   0.0000     110.549528      3008.2056 
 310   0.0000     110.549630      3008.2084 
 311   0.0000     110.594496      3009.4292 

                    ********************************
                    * MULLIKEN POPULATION ANALYSIS *
                    ********************************

-----------------------
MULLIKEN ATOMIC CHARGES
-----------------------
   0 Ag:    0.420079
   1 Ag:    0.361721
   2 Ag:    0.360609
   3 Ag:    0.360613
   4 N :   -0.175509
   5 H :    0.224083
   6 H :    0.224083
   7 H :    0.224321
Sum of atomic charges:    2.0000000

--------------------------------
MULLIKEN REDUCED ORBITAL CHARGES
--------------------------------
  0 Ags       :     2.640988  s :     2.640988
      pz      :     2.017239  p :     6.057689
      px      :     2.017363
      py      :     2.023086
      dz2     :     1.985728  d :     9.877831
      dxz     :     1.994085
      dyz     :     1.960173
      dx2y2   :     1.969765
      dxy     :     1.968080
      f0      :     0.000233  f :     0.003380
      f+1     :     0.000095
      f-1     :     0.000767
      f+2     :     0.000399
      f-2     :     0.000183
      f+3     :     0.000646
      f-3     :     0.001057
      g0      :     0.000003  g :     0.000033
      g+1     :     0.000000
      g-1     :     0.000003
      g+2     :     0.000005
      g-2     :     0.000002
      g+3     :     0.000002
      g-3     :     0.000003
      g+4     :     0.000008
      g-4     :     0.000006
  1 Ags       :     2.605249  s :     2.605249
      pz      :     2.016572  p :     6.143237
      px      :     2.101393
      py      :     2.025271
      dz2     :     1.990094  d :     9.888227
      dxz     :     1.954318
      dyz     :     1.993888
      dx2y2   :     1.983816
      dxy     :     1.966111
      f0      :     0.000160  f :     0.001550
      f+1     :     0.000255
      f-1     :     0.000067
      f+2     :     0.000293
      f-2     :     0.000215
      f+3     :     0.000297
      f-3     :     0.000263
      g0      :     0.000001  g :     0.000016
      g+1     :     0.000002
      g-1     :     0.000000
      g+2     :     0.000002
      g-2     :     0.000001
      g+3     :     0.000003
      g-3     :     0.000002
      g+4     :     0.000002
      g-4     :     0.000002
  2 Ags       :     2.606231  s :     2.606231
      pz      :     2.073809  p :     6.143461
      px      :     2.030297
      py      :     2.039355
      dz2     :     1.963684  d :     9.888133
      dxz     :     1.980639
      dyz     :     1.980284
      dx2y2   :     1.971405
      dxy     :     1.992120
      f0      :     0.000395  f :     0.001550
      f+1     :     0.000232
      f-1     :     0.000219
      f+2     :     0.000262
      f-2     :     0.000137
      f+3     :     0.000152
      f-3     :     0.000153
      g0      :     0.000004  g :     0.000016
      g+1     :     0.000002
      g-1     :     0.000002
      g+2     :     0.000002
      g-2     :     0.000001
      g+3     :     0.000002
      g-3     :     0.000002
      g+4     :     0.000001
      g-4     :     0.000001
  3 Ags       :     2.606228  s :     2.606228
      pz      :     2.073808  p :     6.143460
      px      :     2.030297
      py      :     2.039355
      dz2     :     1.963684  d :     9.888133
      dxz     :     1.980639
      dyz     :     1.980284
      dx2y2   :     1.971405
      dxy     :     1.992120
      f0      :     0.000395  f :     0.001550
      f+1     :     0.000232
      f-1     :     0.000219
      f+2     :     0.000262
      f-2     :     0.000137
      f+3     :     0.000152
      f-3     :     0.000153
      g0      :     0.000004  g :     0.000016
      g+1     :     0.000002
      g-1     :     0.000002
      g+2     :     0.000002
      g-2     :     0.000001
      g+3     :     0.000002
      g-3     :     0.000002
      g+4     :     0.000001
      g-4     :     0.000001
  4 N s       :     3.175358  s :     3.175358
      pz      :     1.243534  p :     3.987503
      px      :     1.251047
      py      :     1.492922
      dz2     :     0.004859  d :     0.011801
      dxz     :     0.005471
      dyz     :     0.001601
      dx2y2   :     0.001495
      dxy     :    -0.001626
      f0      :     0.000035  f :     0.000848
      f+1     :     0.000172
      f-1     :     0.000207
      f+2     :     0.000022
      f-2     :     0.000102
      f+3     :     0.000208
      f-3     :     0.000102
  5 H s       :     0.693884  s :     0.693884
      pz      :     0.035897  p :     0.078129
      px      :     0.024319
      py      :     0.017913
      dz2     :     0.001244  d :     0.003904
      dxz     :     0.000889
      dyz     :     0.000904
      dx2y2   :     0.000524
      dxy     :     0.000342
  6 H s       :     0.693884  s :     0.693884
      pz      :     0.035897  p :     0.078129
      px      :     0.024319
      py      :     0.017913
      dz2     :     0.001244  d :     0.003904
      dxz     :     0.000889
      dyz     :     0.000904
      dx2y2   :     0.000524
      dxy     :     0.000342
  7 H s       :     0.693729  s :     0.693729
      pz      :     0.021946  p :     0.078044
      px      :     0.043666
      py      :     0.012432
      dz2     :     0.000224  d :     0.003906
      dxz     :     0.001297
      dyz     :     0.000011
      dx2y2   :     0.000985
      dxy     :     0.001388


                     *******************************
                     * LOEWDIN POPULATION ANALYSIS *
                     *******************************

----------------------
LOEWDIN ATOMIC CHARGES
----------------------
   0 Ag:    0.420522
   1 Ag:    0.469981
   2 Ag:    0.469984
   3 Ag:    0.469984
   4 N :    0.403648
   5 H :   -0.078048
   6 H :   -0.078048
   7 H :   -0.078023

-------------------------------
LOEWDIN REDUCED ORBITAL CHARGES
-------------------------------
  0 Ags       :     2.342028  s :     2.342028
      pz      :     2.028570  p :     6.386817
      px      :     2.037678
      py      :     2.320568
      dz2     :     1.982830  d :     9.845061
      dxz     :     1.990176
      dyz     :     1.950529
      dx2y2   :     1.965841
      dxy     :     1.955686
      f0      :     0.000371  f :     0.005511
      f+1     :     0.000162
      f-1     :     0.001258
      f+2     :     0.000629
      f-2     :     0.000246
      f+3     :     0.001053
      f-3     :     0.001793
      g0      :     0.000006  g :     0.000060
      g+1     :     0.000001
      g-1     :     0.000006
      g+2     :     0.000011
      g-2     :     0.000003
      g+3     :     0.000003
      g-3     :     0.000005
      g+4     :     0.000015
      g-4     :     0.000013
  1 Ags       :     2.386749  s :     2.386749
      pz      :     2.027079  p :     6.218897
      px      :     2.154197
      py      :     2.037621
      dz2     :     1.992104  d :     9.921963
      dxz     :     1.968233
      dyz     :     1.994350
      dx2y2   :     1.993543
      dxy     :     1.973733
      f0      :     0.000269  f :     0.002387
      f+1     :     0.000341
      f-1     :     0.000095
      f+2     :     0.000487
      f-2     :     0.000284
      f+3     :     0.000493
      f-3     :     0.000418
      g0      :     0.000002  g :     0.000023
      g+1     :     0.000003
      g-1     :     0.000001
      g+2     :     0.000002
      g-2     :     0.000001
      g+3     :     0.000004
      g-3     :     0.000003
      g+4     :     0.000004
      g-4     :     0.000003
  2 Ags       :     2.386914  s :     2.386914
      pz      :     2.116288  p :     6.218831
      px      :     2.050810
      py      :     2.051734
      dz2     :     1.977223  d :     9.921862
      dxz     :     1.986406
      dyz     :     1.983799
      dx2y2   :     1.981970
      dxy     :     1.992464
      f0      :     0.000667  f :     0.002386
      f+1     :     0.000302
      f-1     :     0.000306
      f+2     :     0.000457
      f-2     :     0.000198
      f+3     :     0.000223
      f-3     :     0.000233
      g0      :     0.000006  g :     0.000023
      g+1     :     0.000003
      g-1     :     0.000003
      g+2     :     0.000003
      g-2     :     0.000001
      g+3     :     0.000003
      g-3     :     0.000003
      g+4     :     0.000001
      g-4     :     0.000002
  3 Ags       :     2.386914  s :     2.386914
      pz      :     2.116288  p :     6.218831
      px      :     2.050810
      py      :     2.051734
      dz2     :     1.977223  d :     9.921862
      dxz     :     1.986406
      dyz     :     1.983799
      dx2y2   :     1.981970
      dxy     :     1.992464
      f0      :     0.000667  f :     0.002386
      f+1     :     0.000302
      f-1     :     0.000306
      f+2     :     0.000457
      f-2     :     0.000198
      f+3     :     0.000223
      f-3     :     0.000233
      g0      :     0.000006  g :     0.000023
      g+1     :     0.000003
      g-1     :     0.000003
      g+2     :     0.000003
      g-2     :     0.000001
      g+3     :     0.000003
      g-3     :     0.000003
      g+4     :     0.000001
      g-4     :     0.000002
  4 N s       :     2.885863  s :     2.885863
      pz      :     1.113177  p :     3.491325
      px      :     1.117673
      py      :     1.260476
      dz2     :     0.044898  d :     0.210598
      dxz     :     0.028282
      dyz     :     0.041522
      dx2y2   :     0.066369
      dxy     :     0.029526
      f0      :     0.000074  f :     0.008565
      f+1     :     0.001815
      f-1     :     0.002122
      f+2     :     0.000450
      f-2     :     0.002256
      f+3     :     0.000720
      f-3     :     0.001128
  5 H s       :     0.640418  s :     0.640418
      pz      :     0.136817  p :     0.381990
      px      :     0.098851
      py      :     0.146323
      dz2     :     0.015688  d :     0.055640
      dxz     :     0.012193
      dyz     :     0.014899
      dx2y2   :     0.007152
      dxy     :     0.005708
  6 H s       :     0.640418  s :     0.640418
      pz      :     0.136817  p :     0.381990
      px      :     0.098851
      py      :     0.146323
      dz2     :     0.015688  d :     0.055640
      dxz     :     0.012193
      dyz     :     0.014899
      dx2y2   :     0.007152
      dxy     :     0.005708
  7 H s       :     0.640405  s :     0.640405
      pz      :     0.086190  p :     0.381979
      px      :     0.164088
      py      :     0.131700
      dz2     :     0.004989  d :     0.055640
      dxz     :     0.015976
      dyz     :     0.000644
      dx2y2   :     0.014341
      dxy     :     0.019691


                      *****************************
                      * MAYER POPULATION ANALYSIS *
                      *****************************

  NA   - Mulliken gross atomic population
  ZA   - Total nuclear charge
  QA   - Mulliken gross atomic charge
  VA   - Mayer's total valence
  BVA  - Mayer's bonded valence
  FA   - Mayer's free valence

  ATOM       NA         ZA         QA         VA         BVA        FA
  0 Ag    18.5799    19.0000     0.4201     1.2824     1.2824    -0.0000
  1 Ag    18.6383    19.0000     0.3617     1.2412     1.2412    -0.0000
  2 Ag    18.6394    19.0000     0.3606     1.2422     1.2422    -0.0000
  3 Ag    18.6394    19.0000     0.3606     1.2422     1.2422    -0.0000
  4 N      7.1755     7.0000    -0.1755     3.3595     3.3595     0.0000
  5 H      0.7759     1.0000     0.2241     1.0785     1.0785     0.0000
  6 H      0.7759     1.0000     0.2241     1.0785     1.0785     0.0000
  7 H      0.7757     1.0000     0.2243     1.0780     1.0780    -0.0000

  Mayer bond orders larger than 0.100000
B(  0-Ag,  1-Ag) :   0.2404 B(  0-Ag,  2-Ag) :   0.2406 B(  0-Ag,  3-Ag) :   0.2406 
B(  0-Ag,  4-N ) :   0.5009 B(  1-Ag,  2-Ag) :   0.5078 B(  1-Ag,  3-Ag) :   0.5078 
B(  2-Ag,  3-Ag) :   0.5085 B(  4-N ,  5-H ) :   0.9782 B(  4-N ,  6-H ) :   0.9782 
B(  4-N ,  7-H ) :   0.9780 

-------
TIMINGS
-------

Total SCF time: 0 days 0 hours 0 min 13 sec 

Total time                  ....      13.832 sec
Sum of individual times     ....      13.576 sec  ( 98.1%)

Fock matrix formation       ....      11.565 sec  ( 83.6%)
  XC integration            ....       1.069 sec  (  9.2% of F)
    Basis function eval.    ....       0.107 sec  ( 10.0% of XC)
    Density eval.           ....       0.199 sec  ( 18.7% of XC)
    XC-Functional eval.     ....       0.051 sec  (  4.8% of XC)
    XC-Potential eval.      ....       0.354 sec  ( 33.2% of XC)
Diagonalization             ....       0.162 sec  (  1.2%)
Density matrix formation    ....       0.016 sec  (  0.1%)
Population analysis         ....       0.014 sec  (  0.1%)
Initial guess               ....       1.317 sec  (  9.5%)
Orbital Transformation      ....       0.000 sec  (  0.0%)
Orbital Orthonormalization  ....       0.000 sec  (  0.0%)
DIIS solution               ....       0.078 sec  (  0.6%)
Grid generation             ....       0.423 sec  (  3.1%)


-------------------------------------------------------------------------------
                          DFT DISPERSION CORRECTION                            
                                                                               
                              DFTD3 V3.1  Rev 1                                
                          USING Becke-Johnson damping                          
-------------------------------------------------------------------------------
The TPSSH functional is recognized
Active option DFTDOPT                   ...         4   

molecular C6(AA) [au] = 5557.993231 


            DFT-D V3
 parameters
 s6 scaling factor         :     1.0000 
 a1 scaling factor         :     0.4529 
 s8 scaling factor         :     2.2382 
 a2 scaling factor         :     4.6550 
 ad hoc parameters k1-k3   :    16.0000     1.3333    -4.0000 

 Edisp/kcal,au: -9.273774436258  -0.014778698698 
 E6   /kcal   :  -3.004764955 
 E8   /kcal   :  -6.269009482 
 % E8         :  67.599331047 

-------------------------   ----------------
Dispersion correction           -0.014778699
-------------------------   ----------------


-------------------------   --------------------
FINAL SINGLE POINT ENERGY      -643.866999800303
-------------------------   --------------------


                            ***************************************
                            *     ORCA property calculations      *
                            ***************************************

                                    ---------------------
                                    Active property flags
                                    ---------------------
   (+) Dipole Moment


------------------------------------------------------------------------------
                       ORCA ELECTRIC PROPERTIES CALCULATION
------------------------------------------------------------------------------

Dipole Moment Calculation                       ... on
Quadrupole Moment Calculation                   ... off
Polarizability Calculation                      ... off
GBWName                                         ... Ag04C2_NH3_A.gbw
Electron density file                           ... Ag04C2_NH3_A.scfp
The origin for moment calculation is the CENTER OF MASS  = ( 0.017258, -0.098075  0.000000)

-------------
DIPOLE MOMENT
-------------
                                X             Y             Z
Electronic contribution:      8.67551     -49.27965       0.00000
Nuclear contribution   :     -9.00166      51.14183       0.00000
                        -----------------------------------------
Total Dipole Moment    :     -0.32615       1.86219       0.00000
                        -----------------------------------------
Magnitude (a.u.)       :      1.89053
Magnitude (Debye)      :      4.80536



--------------------
Rotational spectrum 
--------------------
 
Rotational constants in cm-1:     0.020466     0.015199     0.015198 
Rotational constants in MHz :   613.555994   455.656791   455.636329 

 Dipole components along the rotational axes: 
x,y,z [a.u.] :    -1.890533     0.000000    -0.002173 
x,y,z [Debye]:    -4.805352     0.000000    -0.005523 

 

Timings for individual modules:

Sum of individual times         ...       15.974 sec (=   0.266 min)
GTO integral calculation        ...        1.781 sec (=   0.030 min)  11.1 %
SCF iterations                  ...       14.193 sec (=   0.237 min)  88.9 %
                             ****ORCA TERMINATED NORMALLY****
TOTAL RUN TIME: 0 days 0 hours 0 minutes 16 seconds 491 msec
