
                                 *****************
                                 * O   R   C   A *
                                 *****************

           --- An Ab Initio, DFT and Semiempirical electronic structure package ---

                  #######################################################
                  #                        -***-                        #
                  #          Department of theory and spectroscopy      #
                  #               Directorship: Frank Neese             #
                  #        Max Planck Institute fuer Kohlenforschung    #
                  #                Kaiser Wilhelm Platz 1               #
                  #                 D-45470 Muelheim/Ruhr               #
                  #                      Germany                        #
                  #                                                     #
                  #                  All rights reserved                #
                  #                        -***-                        #
                  #######################################################


                         Program Version 4.2.0 -  RELEASE  -


 With contributions from (in alphabetic order):
   Daniel Aravena         : Magnetic Suceptibility
   Michael Atanasov       : Ab Initio Ligand Field Theory (pilot matlab implementation)
   Alexander A. Auer      : GIAO ZORA, VPT2
   Ute Becker             : Parallelization
   Giovanni Bistoni       : ED, misc. LED, open-shell LED, HFLED
   Martin Brehm           : Molecular dynamics
   Dmytro Bykov           : SCF Hessian
   Vijay G. Chilkuri      : MRCI spin determinant printing, contributions to CSF-ICE
   Dipayan Datta          : RHF DLPNO-CCSD density
   Achintya Kumar Dutta   : EOM-CC, STEOM-CC
   Dmitry Ganyushin       : Spin-Orbit,Spin-Spin,Magnetic field MRCI
   Miquel Garcia          : C-PCM Hessian, Gaussian charge scheme
   Yang Guo               : DLPNO-NEVPT2, CIM, IAO-localization
   Andreas Hansen         : Spin unrestricted coupled pair/coupled cluster methods
   Benjamin Helmich-Paris : CASSCF linear response (MC-RPA)
   Lee Huntington         : MR-EOM, pCC
   Robert Izsak           : Overlap fitted RIJCOSX, COSX-SCS-MP3, EOM
   Christian Kollmar      : KDIIS, OOCD, Brueckner-CCSD(T), CCSD density
   Simone Kossmann        : Meta GGA functionals, TD-DFT gradient, OOMP2, MP2 Hessian
   Martin Krupicka        : AUTO-CI
   Lucas Lang             : DCDCAS
   Dagmar Lenk            : GEPOL surface, SMD
   Dimitrios Liakos       : Extrapolation schemes; Compound Job, initial MDCI parallelization
   Dimitrios Manganas     : Further ROCIS development; embedding schemes
   Dimitrios Pantazis     : SARC Basis sets
   Taras Petrenko         : DFT Hessian,TD-DFT gradient, ASA, ECA, R-Raman, ABS, FL, XAS/XES, NRVS
   Peter Pinski           : DLPNO-MP2, DLPNO-MP2 Gradient
   Christoph Reimann      : Effective Core Potentials
   Marius Retegan         : Local ZFS, SOC
   Christoph Riplinger    : Optimizer, TS searches, QM/MM, DLPNO-CCSD(T), (RO)-DLPNO pert. Triples
   Tobias Risthaus        : Range-separated hybrids, TD-DFT gradient, RPA, STAB
   Michael Roemelt        : Original ROCIS implementation
   Masaaki Saitow         : Open-shell DLPNO-CCSD energy and density
   Barbara Sandhoefer     : DKH picture change effects
   Avijit Sen             : IP-ROCIS
   Kantharuban Sivalingam : CASSCF convergence, NEVPT2, FIC-MRCI
   Bernardo de Souza      : ESD, SOC TD-DFT
   Georgi Stoychev        : AutoAux, RI-MP2 NMR
   Willem Van den Heuvel  : Paramagnetic NMR
   Boris Wezisla          : Elementary symmetry handling
   Frank Wennmohs         : Technical directorship


 We gratefully acknowledge several colleagues who have allowed us to
 interface, adapt or use parts of their codes:
   Stefan Grimme, W. Hujo, H. Kruse,             : VdW corrections, initial TS optimization,
                  C. Bannwarth                     DFT functionals, gCP, sTDA/sTD-DF
   Ed Valeev, F. Pavosevic, A. Kumar             : LibInt (2-el integral package), F12 methods
   Garnet Chan, S. Sharma, J. Yang, R. Olivares  : DMRG
   Ulf Ekstrom                                   : XCFun DFT Library
   Mihaly Kallay                                 : mrcc  (arbitrary order and MRCC methods)
   Andreas Klamt, Michael Diedenhofen            : otool_cosmo (COSMO solvation model)
   Jiri Pittner, Ondrej Demel                    : Mk-CCSD
   Frank Weinhold                                : gennbo (NPA and NBO analysis)
   Christopher J. Cramer and Donald G. Truhlar   : smd solvation model
   Lars Goerigk                                  : TD-DFT with DH, B97 family of functionals
   V. Asgeirsson, H. Jonsson                     : NEB implementation
   FAccTs GmbH                                   : IRC, NEB, NEB-TS, Multilevel, MM, QM/MM, CI optimization
   S Lehtola, MJT Oliveira, MAL Marques          : LibXC Library


 Your calculation uses the libint2 library for the computation of 2-el integrals
 For citations please refer to: http://libint.valeyev.net

 Your ORCA version has been built with support for libXC version: 4.2.3
 For citations please refer to: https://tddft.org/programs/libxc/

 This ORCA versions uses:
   CBLAS   interface :  Fast vector & matrix operations
   LAPACKE interface :  Fast linear algebra routines
   SCALAPACK package :  Parallel linear algebra routines


Your calculation utilizes the atom-pairwise dispersion correction
with the Becke-Johnson damping scheme (D3BJ)
Cite in your paper:
S.Grimme, S.Ehrlich, L.Goerigk, J Comput Chem, (2011), 32, 1456–1465 
S.Grimme, J.Antony, S.Ehrlich and H.Krieg, J.Chem.Phys., 132, (2010), 154104 
   

----- Orbital basis set information -----
Your calculation utilizes the basis: def2-TZVPPD
   F. Weigend and R. Ahlrichs, Phys. Chem. Chem. Phys. 7, 3297 (2005).
   D. Rappoport and F. Furche, J. Chem. Phys. 133 134105 (2010).

----- AuxJK basis set information -----
Your calculation utilizes the auxiliary basis: def2/JK
   H-Ba, Hf-Rn: F. Weigend, J. Comput. Chem. 29, 167 (2008).

cite the ECPs for Ag [Def2-ECP] as follows:
Ce-Yb(ecp-28): M. Dolg, H. Stoll, H.Preuss, J. Chem. Phys., 1989, 90, 1730-1734.
Y-Cd(ecp-28), Hf-Hg(ecp-46): D. Andrae,U. Haeussermann, M. Dolg, H. Stoll, H. Preuss, Theor. Chim. Acta, 1990, 77, 123-141.
In-Sb(ecp-28), Tl-Bi(ecp-46): B. Metz, H. Stoll, M. Dolg, J. Chem. Phys., 2000, 113, 2563-2569.
Te-Xe(ecp-28), Po-Rn(ecp-46): K. A. Peterson, D. Figgen, E. Goll, H. Stoll, M. Dolg, J. Chem. Phys., 2003, 119, 11113-11123.
Rb(ecp-28), Cs(ecp-46): T. Leininger, A. Nicklass, W. Kuechle, H. Stoll, M. Dolg, A. Bergner, Chem. Phys. Lett., 1996, 255, 274-280.
Sr(ecp-28), Ba(ecp-46): M. Kaupp, P. V. Schleyer, H. Stoll and H. Preuss, J. Chem. Phys., 1991, 94, 1360-1366.
La(ecp-46): M. Dolg, H. Stoll, A. Savin, H. Preuss, Theor. Chim. Acta, 1989, 75, 173-194.
Lu(ecp-28): X. Cao, M. Dolg, J. Chem. Phys., 2001, 115, 7348-7355.

ECP parameters for Ag [Def2-ECP] have been obtained from:
TURBOMOLE (7.0.2)

================================================================================
                                        WARNINGS
                       Please study these warnings very carefully!
================================================================================


WARNING: your system is open-shell and RHF/RKS was chosen
  ===> : WILL SWITCH to UHF/UKS


INFO   : the flag for use of LIBINT has been found!

================================================================================
                                       INPUT FILE
================================================================================
NAME = Ag04C2_H_F.in
|  1> #
|  2> # Ag04C2_H_F TPSSh-D3BJ/Def2-TZVPPD
|  3> #
|  4> ! tpssh d3bj def2-tzvppd def2/jk grid4 nofinalgrid
|  5> 
|  6> *xyz 2 2
|  7> Ag       0.000000    1.604405   -0.611776 
|  8> Ag       1.389456   -0.802203   -0.611776 
|  9> Ag      -1.389456   -0.802203   -0.611776 
| 10> Ag       0.000000    0.000000    1.871824 
| 11> H        0.000000    0.000000   -1.715373 
| 12> *
| 13> 
| 14> %maxcore 5000
| 15> 
| 16> %pal
| 17> nprocs = 24
| 18> end
| 19> 
| 20> 
| 21>                          ****END OF INPUT****
================================================================================

                       ****************************
                       * Single Point Calculation *
                       ****************************

---------------------------------
CARTESIAN COORDINATES (ANGSTROEM)
---------------------------------
  Ag     0.000000    1.604405   -0.611776
  Ag     1.389456   -0.802203   -0.611776
  Ag    -1.389456   -0.802203   -0.611776
  Ag     0.000000    0.000000    1.871824
  H      0.000000    0.000000   -1.715373

----------------------------
CARTESIAN COORDINATES (A.U.)
----------------------------
  NO LB      ZA    FRAG     MASS         X           Y           Z
   0 Ag   19.0000*   0   107.870    0.000000    3.031886   -1.156089
   1 Ag   19.0000*   0   107.870    2.625691   -1.515944   -1.156089
   2 Ag   19.0000*   0   107.870   -2.625691   -1.515944   -1.156089
   3 Ag   19.0000*   0   107.870    0.000000    0.000000    3.537235
   4 H     1.0000    0     1.008    0.000000    0.000000   -3.241585
* core charge reduced due to ECP

--------------------------------
INTERNAL COORDINATES (ANGSTROEM)
--------------------------------
 Ag     0   0   0     0.000000000000     0.00000000     0.00000000
 Ag     1   0   0     2.778911664951     0.00000000     0.00000000
 Ag     1   2   0     2.778911664951    60.00000798     0.00000000
 Ag     1   2   3     2.956752333900    61.97049292    72.09954764
 H      1   2   3     1.947316549109    44.47770393   306.01333306

---------------------------
INTERNAL COORDINATES (A.U.)
---------------------------
 Ag     0   0   0     0.000000000000     0.00000000     0.00000000
 Ag     1   0   0     5.251381997116     0.00000000     0.00000000
 Ag     1   2   0     5.251381997116    60.00000798     0.00000000
 Ag     1   2   3     5.587452156904    61.97049292    72.09954764
 H      1   2   3     3.679894973869    44.47770393   306.01333306

---------------------
BASIS SET INFORMATION
---------------------
There are 2 groups of distinct atoms

 Group   1 Type Ag  : 7s7p6d2f1g contracted to 6s4p3d2f1g pattern {211111/4111/411/11/1}
 Group   2 Type H   : 5s3p1d contracted to 3s3p1d pattern {311/111/1}

Atom   0Ag   basis set group =>   1
Atom   1Ag   basis set group =>   1
Atom   2Ag   basis set group =>   1
Atom   3Ag   basis set group =>   1
Atom   4H    basis set group =>   2
----------------------------------
AUXILIARY/JK BASIS SET INFORMATION
----------------------------------
There are 2 groups of distinct atoms

 Group   1 Type Ag  : 13s12p10d9f6g3h2i contracted to 11s10p9d8f6g3h2i pattern {31111111111/3111111111/211111111/21111111/111111/111/11}
 Group   2 Type H   : 4s2p2d contracted to 2s2p2d pattern {31/11/11}

Atom   0Ag   basis set group =>   1
Atom   1Ag   basis set group =>   1
Atom   2Ag   basis set group =>   1
Atom   3Ag   basis set group =>   1
Atom   4H    basis set group =>   2
-------------------------
ECP PARAMETER INFORMATION
-------------------------

 Group 1, Type Ag ECP Def2-ECP (replacing 28 core electrons, lmax=3)

Atom   0Ag   ECP group =>   1
Atom   1Ag   ECP group =>   1
Atom   2Ag   ECP group =>   1
Atom   3Ag   ECP group =>   1



           ************************************************************
           *        Program running with 24 parallel MPI-processes    *
           *              working on a common directory               *
           ************************************************************
------------------------------------------------------------------------------
                           ORCA GTO INTEGRAL CALCULATION
------------------------------------------------------------------------------

                         BASIS SET STATISTICS AND STARTUP INFO

 # of primitive gaussian shells          ...  101
 # of primitive gaussian functions       ...  343
 # of contracted shells                  ...   71
 # of contracted basis functions         ...  241
 Highest angular momentum                ...    4
 Maximum contraction depth               ...    4
 Integral package used                   ... LIBINT
 Integral threshhold            Thresh   ...  1.000e-10
 Primitive cut-off              TCut     ...  1.000e-11


------------------------------ INTEGRAL EVALUATION ----------------------------


 * One electron integrals 

   ECP integrals                         ... done
 Pre-screening matrix                    ... done
 Shell pair data                         ... done (   0.001 sec)



           ************************************************************
           *        Program running with 24 parallel MPI-processes    *
           *              working on a common directory               *
           ************************************************************
-------------------------------------------------------------------------------
                                 ORCA SCF
-------------------------------------------------------------------------------

------------
SCF SETTINGS
------------
Hamiltonian:
 Density Functional     Method          .... DFT(GTOs)
 Exchange Functional    Exchange        .... TPSS
 Correlation Functional Correlation     .... TPSS
 LDA part of GGA corr.  LDAOpt          .... PW91-LDA
 Gradients option       PostSCFGGA      .... off
 Hybrid DFT is turned on
   Fraction HF Exchange ScalHFX         ....  0.100000
   Scaling of DF-GGA-X  ScalDFX         ....  0.900000
   Scaling of DF-GGA-C  ScalDFC         ....  1.000000
   Scaling of DF-LDA-C  ScalLDAC        ....  1.000000
   Perturbative correction              ....  0.000000
   Density functional embedding theory  .... OFF
   NL short-range parameter             ....  5.200000


General Settings:
 Integral files         IntName         .... Ag04C2_H_F
 Hartree-Fock type      HFTyp           .... UHF
 Total Charge           Charge          ....    2
 Multiplicity           Mult            ....    2
 Number of Electrons    NEL             ....   75
 Basis Dimension        Dim             ....  241
 Nuclear Repulsion      ENuc            ....    418.3509819036 Eh

Convergence Acceleration:
 DIIS                   CNVDIIS         .... on
   Start iteration      DIISMaxIt       ....    12
   Startup error        DIISStart       ....  0.200000
   # of expansion vecs  DIISMaxEq       ....     5
   Bias factor          DIISBfac        ....   1.050
   Max. coefficient     DIISMaxC        ....  10.000
 Newton-Raphson         CNVNR           .... off
 SOSCF                  CNVSOSCF        .... off
 Level Shifting         CNVShift        .... on
   Level shift para.    LevelShift      ....    0.2500
   Turn off err/grad.   ShiftErr        ....    0.0010
 Zerner damping         CNVZerner       .... off
 Static damping         CNVDamp         .... on
   Fraction old density DampFac         ....    0.7000
   Max. Damping (<1)    DampMax         ....    0.9800
   Min. Damping (>=0)   DampMin         ....    0.0000
   Turn off err/grad.   DampErr         ....    0.1000
 Fernandez-Rico         CNVRico         .... off

SCF Procedure:
 Maximum # iterations   MaxIter         ....   125
 SCF integral mode      SCFMode         .... Direct
   Integral package                     .... LIBINT
 Reset frequency        DirectResetFreq ....    20
 Integral Threshold     Thresh          ....  1.000e-10 Eh
 Primitive CutOff       TCut            ....  1.000e-11 Eh

Convergence Tolerance:
 Convergence Check Mode ConvCheckMode   .... Total+1el-Energy
 Convergence forced     ConvForced      .... 0
 Energy Change          TolE            ....  1.000e-06 Eh
 1-El. energy change                    ....  1.000e-03 Eh
 DIIS Error             TolErr          ....  1.000e-06


Diagonalization of the overlap matrix:
Smallest eigenvalue                        ... 8.572e-04
Time for diagonalization                   ...    0.009 sec
Threshold for overlap eigenvalues          ... 1.000e-08
Number of eigenvalues below threshold      ... 0
Time for construction of square roots      ...    0.007 sec
Total time needed                          ...    0.016 sec

-------------------
DFT GRID GENERATION
-------------------

General Integration Accuracy     IntAcc      ...  4.670
Radial Grid Type                 RadialGrid  ... Gauss-Chebyshev
Angular Grid (max. acc.)         AngularGrid ... Lebedev-302
Angular grid pruning method      GridPruning ... 3 (G Style)
Weight generation scheme         WeightScheme... Becke
Basis function cutoff            BFCut       ...    1.0000e-10
Integration weight cutoff        WCut        ...    1.0000e-14
Grids for H and He will be reduced by one unit

# of grid points (after initial pruning)     ...  46026 (   0.0 sec)
# of grid points (after weights+screening)   ...  44988 (   0.0 sec)
nearest neighbour list constructed           ...    0.0 sec
Grid point re-assignment to atoms done       ...    0.0 sec
Grid point division into batches done        ...    0.3 sec
Reduced shell lists constructed in    0.3 sec

Total number of grid points                  ...    44988
Total number of batches                      ...      705
Average number of points per batch           ...       63
Average number of grid points per atom       ...     8998
Average number of shells per batch           ...    13.13 (18.49%)
Average number of basis functions per batch  ...    32.35 (13.43%)
Average number of large shells per batch     ...     8.87 (67.57%)
Average number of large basis fcns per batch ...    20.42 (63.11%)
Maximum spatial batch extension              ...  27.25, 26.29, 26.69 au
Average spatial batch extension              ...   0.52,  0.44,  0.49 au

Time for grid setup =    0.380 sec

------------------------------
INITIAL GUESS: MODEL POTENTIAL
------------------------------
Loading Hartree-Fock densities                     ... done
  calling /sw/apps/orca/orca_4_2_0_linux_x86-64_openmpi314/orca Ag04C2_H_F_atom47.inp > Ag04C2_H_F_atom47.out in order to generate an atomic fitting density for atom 0 (Ag with ECP) on-the-fly... 
    atom 0 (Ag), assumed electronic state with S=2: 1s2 2s2 2p6 3s2 3p6 4s2 3d10 4p6 5s2 4d9           ... done
Calculating cut-offs                               ... done
Setting up the integral package                    ... done
Initializing the effective Hamiltonian             ... done
Starting the Coulomb interaction                   ... done (   0.0 sec)
Reading the grid                                   ... done
Mapping shells                                     ... done
Starting the XC term evaluation                    ... done (   0.0 sec)
  promolecular density results
     # of electrons  =    189.001384231
     EX              =   -574.069743395
     EC              =    -10.007360225
     EX+EC           =   -584.077103620
Transforming the Hamiltonian                       ... done (   0.0 sec)
Diagonalizing the Hamiltonian                      ... done (   0.0 sec)
Back transforming the eigenvectors                 ... done (   0.0 sec)
Now organizing SCF variables                       ... done
                      ------------------
                      INITIAL GUESS DONE (   1.7 sec)
                      ------------------
--------------
SCF ITERATIONS
--------------
ITER       Energy         Delta-E        Max-DP      RMS-DP      [F,P]     Damp
               ***  Starting incremental Fock matrix formation  ***
  0   -587.4724235236   0.000000000000 0.05818767  0.00080480  0.5120040 0.7000
  1   -587.5917045209  -0.119280997249 0.02883139  0.00041509  0.3370378 0.7000
  2   -587.6335659833  -0.041861462408 0.01122071  0.00015941  0.2247044 0.7000
                               ***Turning on DIIS***
  3   -587.6610178303  -0.027451846963 0.00522401  0.00009727  0.1541830 0.7000
  4   -587.6812029519  -0.020185121608 0.00398772  0.00007834  0.1076847 0.7000
  5   -587.6954421439  -0.014239192028 0.01173131  0.00019884  0.0757582 0.0000
  6   -587.7286695721  -0.033227428170 0.00253171  0.00002303  0.0010859 0.0000
  7   -587.7287001486  -0.000030576492 0.00632108  0.00003537  0.0007690 0.0000
  8   -587.7287222610  -0.000022112389 0.00092755  0.00001330  0.0004199 0.0000
  9   -587.7287262854  -0.000004024462 0.00118419  0.00000588  0.0003174 0.0000
 10   -587.7287268375  -0.000000552119 0.00016330  0.00000230  0.0002117 0.0000
                 **** Energy Check signals convergence ****

               *****************************************************
               *                     SUCCESS                       *
               *           SCF CONVERGED AFTER  11 CYCLES          *
               *****************************************************


----------------
TOTAL SCF ENERGY
----------------

Total Energy       :         -587.72872711 Eh          -15992.91173 eV

Components:
Nuclear Repulsion  :          418.35098190 Eh           11383.90896 eV
Electronic Energy  :        -1006.07970901 Eh          -27376.82069 eV
One Electron Energy:        -1851.94319589 Eh          -50393.93634 eV
Two Electron Energy:          845.86348687 Eh           23017.11565 eV

Virial components:
Potential Energy   :         -813.10206284 Eh          -22125.63198 eV
Kinetic Energy     :          225.37333573 Eh            6132.72025 eV
Virial Ratio       :            3.60780063


DFT components:
N(Alpha)           :       37.999978005628 electrons
N(Beta)            :       36.999975588724 electrons
N(Total)           :       74.999953594352 electrons
E(X)               :      -47.708578334241 Eh       
E(C)               :       -3.299912384522 Eh       
E(XC)              :      -51.008490718763 Eh       
DFET-embed. en.    :        0.000000000000 Eh       

---------------
SCF CONVERGENCE
---------------

  Last Energy change         ...   -2.7316e-07  Tolerance :   1.0000e-06
  Last MAX-Density change    ...    1.6334e-04  Tolerance :   1.0000e-05
  Last RMS-Density change    ...    1.1366e-06  Tolerance :   1.0000e-06
  Last DIIS Error            ...    6.3566e-05  Tolerance :   1.0000e-06

             **** THE GBW FILE WAS UPDATED (Ag04C2_H_F.gbw) ****
             **** DENSITY FILE WAS UPDATED (Ag04C2_H_F.scfp) ****
             **** ENERGY FILE WAS UPDATED (Ag04C2_H_F.en.tmp) ****
----------------------
UHF SPIN CONTAMINATION
----------------------

Warning: in a DFT calculation there is little theoretical justification to 
         calculate <S**2> as in Hartree-Fock theory. We will do it anyways
         but you should keep in mind that the values have only limited relevance

Expectation value of <S**2>     :     0.755923
Ideal value S*(S+1) for S=0.5   :     0.750000
Deviation                       :     0.005923

             **** THE GBW FILE WAS UPDATED (Ag04C2_H_F.gbw) ****
             **** DENSITY FILE WAS UPDATED (Ag04C2_H_F.scfp) ****
----------------
ORBITAL ENERGIES
----------------
                 SPIN UP ORBITALS
  NO   OCC          E(Eh)            E(eV) 
   0   1.0000      -4.060768      -110.4991 
   1   1.0000      -4.060499      -110.4918 
   2   1.0000      -4.060499      -110.4918 
   3   1.0000      -4.028243      -109.6141 
   4   1.0000      -2.670362       -72.6642 
   5   1.0000      -2.667816       -72.5950 
   6   1.0000      -2.667816       -72.5950 
   7   1.0000      -2.665232       -72.5246 
   8   1.0000      -2.665112       -72.5214 
   9   1.0000      -2.665111       -72.5214 
  10   1.0000      -2.664587       -72.5071 
  11   1.0000      -2.664583       -72.5070 
  12   1.0000      -2.664026       -72.4918 
  13   1.0000      -2.634866       -71.6983 
  14   1.0000      -2.632972       -71.6468 
  15   1.0000      -2.632970       -71.6468 
  16   1.0000      -0.798262       -21.7218 
  17   1.0000      -0.731572       -19.9071 
  18   1.0000      -0.714198       -19.4343 
  19   1.0000      -0.714193       -19.4342 
  20   1.0000      -0.700421       -19.0594 
  21   1.0000      -0.700416       -19.0593 
  22   1.0000      -0.699537       -19.0354 
  23   1.0000      -0.686815       -18.6892 
  24   1.0000      -0.686808       -18.6890 
  25   1.0000      -0.679524       -18.4908 
  26   1.0000      -0.679513       -18.4905 
  27   1.0000      -0.676441       -18.4069 
  28   1.0000      -0.674428       -18.3521 
  29   1.0000      -0.674426       -18.3521 
  30   1.0000      -0.669815       -18.2266 
  31   1.0000      -0.659125       -17.9357 
  32   1.0000      -0.655413       -17.8347 
  33   1.0000      -0.655398       -17.8343 
  34   1.0000      -0.649025       -17.6609 
  35   1.0000      -0.649016       -17.6606 
  36   1.0000      -0.644852       -17.5473 
  37   1.0000      -0.533498       -14.5172 
  38   0.0000      -0.456404       -12.4194 
  39   0.0000      -0.456400       -12.4193 
  40   0.0000      -0.394424       -10.7328 
  41   0.0000      -0.339099        -9.2274 
  42   0.0000      -0.325377        -8.8540 
  43   0.0000      -0.325377        -8.8540 
  44   0.0000      -0.318388        -8.6638 
  45   0.0000      -0.318386        -8.6637 
  46   0.0000      -0.214501        -5.8369 
  47   0.0000      -0.202127        -5.5002 
  48   0.0000      -0.202127        -5.5002 
  49   0.0000      -0.200768        -5.4632 
  50   0.0000      -0.191942        -5.2230 
  51   0.0000      -0.191939        -5.2229 
  52   0.0000      -0.191458        -5.2098 
  53   0.0000      -0.152988        -4.1630 
  54   0.0000      -0.123349        -3.3565 
  55   0.0000      -0.110037        -2.9943 
  56   0.0000      -0.109592        -2.9822 
  57   0.0000      -0.109591        -2.9821 
  58   0.0000      -0.100552        -2.7362 
  59   0.0000      -0.100551        -2.7361 
  60   0.0000      -0.083135        -2.2622 
  61   0.0000      -0.083128        -2.2620 
  62   0.0000      -0.077058        -2.0968 
  63   0.0000      -0.037337        -1.0160 
  64   0.0000      -0.037336        -1.0160 
  65   0.0000      -0.016031        -0.4362 
  66   0.0000      -0.014431        -0.3927 
  67   0.0000      -0.014423        -0.3925 
  68   0.0000      -0.011809        -0.3213 
  69   0.0000      -0.004749        -0.1292 
  70   0.0000       0.013965         0.3800 
  71   0.0000       0.013974         0.3802 
  72   0.0000       0.079802         2.1715 
  73   0.0000       0.079808         2.1717 
  74   0.0000       0.139687         3.8011 
  75   0.0000       0.139689         3.8011 
  76   0.0000       0.143538         3.9059 
  77   0.0000       0.182055         4.9540 
  78   0.0000       0.196497         5.3470 
  79   0.0000       0.232127         6.3165 
  80   0.0000       0.244612         6.6562 
  81   0.0000       0.244617         6.6564 
  82   0.0000       0.256644         6.9837 
  83   0.0000       0.256646         6.9837 
  84   0.0000       0.281318         7.6551 
  85   0.0000       0.281333         7.6555 
  86   0.0000       0.300878         8.1873 
  87   0.0000       0.327105         8.9010 
  88   0.0000       0.327132         8.9017 
  89   0.0000       0.362121         9.8538 
  90   0.0000       0.362125         9.8539 
  91   0.0000       0.374602        10.1934 
  92   0.0000       0.378141        10.2898 
  93   0.0000       0.614020        16.7083 
  94   0.0000       0.614082        16.7100 
  95   0.0000       0.706852        19.2344 
  96   0.0000       1.108336        30.1594 
  97   0.0000       1.108353        30.1598 
  98   0.0000       1.155479        31.4422 
  99   0.0000       1.159610        31.5546 
 100   0.0000       1.166672        31.7468 
 101   0.0000       1.166676        31.7469 
 102   0.0000       1.172472        31.9046 
 103   0.0000       1.172625        31.9087 
 104   0.0000       1.172647        31.9094 
 105   0.0000       1.183035        32.1920 
 106   0.0000       1.183050        32.1924 
 107   0.0000       1.189599        32.3706 
 108   0.0000       1.202482        32.7212 
 109   0.0000       1.202507        32.7219 
 110   0.0000       1.209980        32.9252 
 111   0.0000       1.210117        32.9289 
 112   0.0000       1.210120        32.9290 
 113   0.0000       1.213724        33.0271 
 114   0.0000       1.216629        33.1061 
 115   0.0000       1.218510        33.1573 
 116   0.0000       1.218516        33.1575 
 117   0.0000       1.225571        33.3495 
 118   0.0000       1.245807        33.9001 
 119   0.0000       1.245811        33.9002 
 120   0.0000       1.251977        34.0680 
 121   0.0000       1.251980        34.0681 
 122   0.0000       1.262899        34.3652 
 123   0.0000       1.301645        35.4196 
 124   0.0000       1.329545        36.1788 
 125   0.0000       1.329560        36.1792 
 126   0.0000       1.342163        36.5221 
 127   0.0000       1.366075        37.1728 
 128   0.0000       1.366080        37.1729 
 129   0.0000       1.375062        37.4173 
 130   0.0000       1.421620        38.6842 
 131   0.0000       1.421645        38.6849 
 132   0.0000       1.442533        39.2533 
 133   0.0000       1.504169        40.9305 
 134   0.0000       1.522078        41.4178 
 135   0.0000       1.522084        41.4180 
 136   0.0000       1.684691        45.8428 
 137   0.0000       1.684724        45.8437 
 138   0.0000       1.702131        46.3173 
 139   0.0000       1.707733        46.4698 
 140   0.0000       1.711069        46.5606 
 141   0.0000       1.711115        46.5618 
 142   0.0000       1.756449        47.7954 
 143   0.0000       1.757501        47.8240 
 144   0.0000       1.757516        47.8244 
 145   0.0000       1.782473        48.5036 
 146   0.0000       1.782510        48.5046 
 147   0.0000       1.786297        48.6076 
 148   0.0000       1.789824        48.7036 
 149   0.0000       1.789868        48.7048 
 150   0.0000       1.802810        49.0569 
 151   0.0000       1.802845        49.0579 
 152   0.0000       1.804592        49.1054 
 153   0.0000       1.840299        50.0771 
 154   0.0000       1.882832        51.2345 
 155   0.0000       1.882835        51.2345 
 156   0.0000       2.137677        58.1691 
 157   0.0000       2.354830        64.0782 
 158   0.0000       2.402262        65.3689 
 159   0.0000       2.402282        65.3694 
 160   0.0000       2.802886        76.2704 
 161   0.0000       2.957190        80.4692 
 162   0.0000       2.957248        80.4708 
 163   0.0000       2.994563        81.4862 
 164   0.0000       3.270167        88.9858 
 165   0.0000       3.270390        88.9918 
 166   0.0000       3.850409       104.7749 
 167   0.0000       3.850497       104.7773 
 168   0.0000       3.900203       106.1299 
 169   0.0000       4.391810       119.5072 
 170   0.0000       4.391847       119.5082 
 171   0.0000       4.407959       119.9467 
 172   0.0000       4.413978       120.1104 
 173   0.0000       4.413984       120.1106 
 174   0.0000       4.417275       120.2002 
 175   0.0000       4.434932       120.6806 
 176   0.0000       4.434949       120.6811 
 177   0.0000       4.435240       120.6890 
 178   0.0000       4.435952       120.7084 
 179   0.0000       4.452852       121.1683 
 180   0.0000       4.452880       121.1690 
 181   0.0000       4.453144       121.1762 
 182   0.0000       4.459479       121.3486 
 183   0.0000       4.465772       121.5198 
 184   0.0000       4.465801       121.5206 
 185   0.0000       4.479552       121.8948 
 186   0.0000       4.490287       122.1869 
 187   0.0000       4.490328       122.1880 
 188   0.0000       4.566490       124.2605 
 189   0.0000       4.566533       124.2617 
 190   0.0000       4.575871       124.5158 
 191   0.0000       4.603620       125.2709 
 192   0.0000       4.620413       125.7278 
 193   0.0000       4.620424       125.7281 
 194   0.0000       4.782162       130.1292 
 195   0.0000       4.782303       130.1331 
 196   0.0000       4.815989       131.0497 
 197   0.0000       5.169169       140.6602 
 198   0.0000       5.170721       140.7025 
 199   0.0000       5.170894       140.7072 
 200   0.0000       5.171280       140.7177 
 201   0.0000       5.171841       140.7329 
 202   0.0000       5.171997       140.7372 
 203   0.0000       5.172038       140.7383 
 204   0.0000       5.173256       140.7715 
 205   0.0000       5.173409       140.7756 
 206   0.0000       5.173716       140.7840 
 207   0.0000       5.174531       140.8062 
 208   0.0000       5.174646       140.8093 
 209   0.0000       5.175004       140.8190 
 210   0.0000       5.175304       140.8272 
 211   0.0000       5.175498       140.8325 
 212   0.0000       5.175557       140.8341 
 213   0.0000       5.176481       140.8592 
 214   0.0000       5.176488       140.8594 
 215   0.0000       5.180600       140.9713 
 216   0.0000       5.180633       140.9722 
 217   0.0000       5.182843       141.0323 
 218   0.0000       5.185547       141.1059 
 219   0.0000       5.185642       141.1085 
 220   0.0000       5.194547       141.3508 
 221   0.0000       5.202899       141.5781 
 222   0.0000       5.203550       141.5958 
 223   0.0000       5.204091       141.6105 
 224   0.0000       5.204114       141.6111 
 225   0.0000       5.204795       141.6297 
 226   0.0000       5.204986       141.6349 
 227   0.0000       5.205304       141.6435 
 228   0.0000       5.208591       141.7330 
 229   0.0000       5.209492       141.7575 
 230   0.0000       5.320240       144.7711 
 231   0.0000       5.320292       144.7725 
 232   0.0000       5.356777       145.7653 
 233   0.0000      33.025036       898.6569 
 234   0.0000      33.277184       905.5182 
 235   0.0000      33.425256       909.5475 
 236   0.0000      33.425264       909.5477 
 237   0.0000     110.393473      3003.9591 
 238   0.0000     110.481144      3006.3448 
 239   0.0000     110.514278      3007.2464 
 240   0.0000     110.514282      3007.2465 

                 SPIN DOWN ORBITALS
  NO   OCC          E(Eh)            E(eV) 
   0   1.0000      -4.058723      -110.4435 
   1   1.0000      -4.058455      -110.4362 
   2   1.0000      -4.058455      -110.4362 
   3   1.0000      -4.028422      -109.6189 
   4   1.0000      -2.667430       -72.5845 
   5   1.0000      -2.665472       -72.5312 
   6   1.0000      -2.665471       -72.5312 
   7   1.0000      -2.663778       -72.4851 
   8   1.0000      -2.663775       -72.4850 
   9   1.0000      -2.663508       -72.4777 
  10   1.0000      -2.662270       -72.4440 
  11   1.0000      -2.661877       -72.4334 
  12   1.0000      -2.661875       -72.4333 
  13   1.0000      -2.635053       -71.7034 
  14   1.0000      -2.633227       -71.6538 
  15   1.0000      -2.633226       -71.6537 
  16   1.0000      -0.778994       -21.1975 
  17   1.0000      -0.727141       -19.7865 
  18   1.0000      -0.713450       -19.4140 
  19   1.0000      -0.713445       -19.4138 
  20   1.0000      -0.697084       -18.9686 
  21   1.0000      -0.696696       -18.9580 
  22   1.0000      -0.696690       -18.9579 
  23   1.0000      -0.684236       -18.6190 
  24   1.0000      -0.684229       -18.6188 
  25   1.0000      -0.675036       -18.3687 
  26   1.0000      -0.674998       -18.3676 
  27   1.0000      -0.674989       -18.3674 
  28   1.0000      -0.672337       -18.2952 
  29   1.0000      -0.672323       -18.2948 
  30   1.0000      -0.663157       -18.0454 
  31   1.0000      -0.658141       -17.9089 
  32   1.0000      -0.651777       -17.7357 
  33   1.0000      -0.651762       -17.7354 
  34   1.0000      -0.645950       -17.5772 
  35   1.0000      -0.645940       -17.5769 
  36   1.0000      -0.636331       -17.3155 
  37   0.0000      -0.488645       -13.2967 
  38   0.0000      -0.451102       -12.2751 
  39   0.0000      -0.451099       -12.2750 
  40   0.0000      -0.379900       -10.3376 
  41   0.0000      -0.332930        -9.0595 
  42   0.0000      -0.320497        -8.7212 
  43   0.0000      -0.320496        -8.7211 
  44   0.0000      -0.307836        -8.3766 
  45   0.0000      -0.307834        -8.3766 
  46   0.0000      -0.202324        -5.5055 
  47   0.0000      -0.194786        -5.3004 
  48   0.0000      -0.194784        -5.3003 
  49   0.0000      -0.189386        -5.1535 
  50   0.0000      -0.187921        -5.1136 
  51   0.0000      -0.187259        -5.0956 
  52   0.0000      -0.187256        -5.0955 
  53   0.0000      -0.147218        -4.0060 
  54   0.0000      -0.118626        -3.2280 
  55   0.0000      -0.101519        -2.7625 
  56   0.0000      -0.100862        -2.7446 
  57   0.0000      -0.100860        -2.7446 
  58   0.0000      -0.094443        -2.5699 
  59   0.0000      -0.094442        -2.5699 
  60   0.0000      -0.077678        -2.1137 
  61   0.0000      -0.077674        -2.1136 
  62   0.0000      -0.068378        -1.8607 
  63   0.0000      -0.029069        -0.7910 
  64   0.0000      -0.029069        -0.7910 
  65   0.0000      -0.008718        -0.2372 
  66   0.0000      -0.005622        -0.1530 
  67   0.0000      -0.004792        -0.1304 
  68   0.0000      -0.004787        -0.1302 
  69   0.0000       0.008658         0.2356 
  70   0.0000       0.017896         0.4870 
  71   0.0000       0.017902         0.4871 
  72   0.0000       0.088817         2.4168 
  73   0.0000       0.088818         2.4169 
  74   0.0000       0.145074         3.9477 
  75   0.0000       0.145079         3.9478 
  76   0.0000       0.148877         4.0511 
  77   0.0000       0.186228         5.0675 
  78   0.0000       0.205635         5.5956 
  79   0.0000       0.243203         6.6179 
  80   0.0000       0.250902         6.8274 
  81   0.0000       0.250908         6.8275 
  82   0.0000       0.261312         7.1107 
  83   0.0000       0.261315         7.1108 
  84   0.0000       0.284490         7.7414 
  85   0.0000       0.284499         7.7416 
  86   0.0000       0.308553         8.3962 
  87   0.0000       0.332305         9.0425 
  88   0.0000       0.332324         9.0430 
  89   0.0000       0.369414        10.0523 
  90   0.0000       0.369419        10.0524 
  91   0.0000       0.376467        10.2442 
  92   0.0000       0.389366        10.5952 
  93   0.0000       0.630362        17.1530 
  94   0.0000       0.630425        17.1547 
  95   0.0000       0.723124        19.6772 
  96   0.0000       1.109854        30.2007 
  97   0.0000       1.109869        30.2011 
  98   0.0000       1.157371        31.4937 
  99   0.0000       1.162074        31.6216 
 100   0.0000       1.168347        31.7923 
 101   0.0000       1.168351        31.7925 
 102   0.0000       1.174520        31.9603 
 103   0.0000       1.176130        32.0041 
 104   0.0000       1.176156        32.0048 
 105   0.0000       1.184562        32.2336 
 106   0.0000       1.184577        32.2340 
 107   0.0000       1.190783        32.4029 
 108   0.0000       1.204493        32.7759 
 109   0.0000       1.204523        32.7767 
 110   0.0000       1.212524        32.9944 
 111   0.0000       1.212527        32.9945 
 112   0.0000       1.213858        33.0308 
 113   0.0000       1.218847        33.1665 
 114   0.0000       1.221623        33.2421 
 115   0.0000       1.221759        33.2457 
 116   0.0000       1.221769        33.2460 
 117   0.0000       1.228088        33.4180 
 118   0.0000       1.248807        33.9818 
 119   0.0000       1.248815        33.9820 
 120   0.0000       1.254311        34.1315 
 121   0.0000       1.254313        34.1316 
 122   0.0000       1.263792        34.3895 
 123   0.0000       1.306011        35.5384 
 124   0.0000       1.337324        36.3904 
 125   0.0000       1.337338        36.3908 
 126   0.0000       1.345234        36.6057 
 127   0.0000       1.368380        37.2355 
 128   0.0000       1.368384        37.2356 
 129   0.0000       1.380974        37.5782 
 130   0.0000       1.427476        38.8436 
 131   0.0000       1.427500        38.8442 
 132   0.0000       1.448442        39.4141 
 133   0.0000       1.504893        40.9502 
 134   0.0000       1.524987        41.4970 
 135   0.0000       1.524998        41.4973 
 136   0.0000       1.687617        45.9224 
 137   0.0000       1.687653        45.9234 
 138   0.0000       1.706522        46.4368 
 139   0.0000       1.709313        46.5128 
 140   0.0000       1.716100        46.6975 
 141   0.0000       1.716130        46.6983 
 142   0.0000       1.759443        47.8769 
 143   0.0000       1.759453        47.8771 
 144   0.0000       1.763115        47.9768 
 145   0.0000       1.784652        48.5628 
 146   0.0000       1.784692        48.5640 
 147   0.0000       1.789860        48.7046 
 148   0.0000       1.792368        48.7728 
 149   0.0000       1.792413        48.7740 
 150   0.0000       1.805174        49.1213 
 151   0.0000       1.806039        49.1448 
 152   0.0000       1.806075        49.1458 
 153   0.0000       1.846615        50.2489 
 154   0.0000       1.888477        51.3881 
 155   0.0000       1.888482        51.3882 
 156   0.0000       2.143727        58.3338 
 157   0.0000       2.358870        64.1881 
 158   0.0000       2.405767        65.4642 
 159   0.0000       2.405787        65.4648 
 160   0.0000       2.832162        77.0671 
 161   0.0000       2.979326        81.0716 
 162   0.0000       2.979342        81.0720 
 163   0.0000       3.014844        82.0381 
 164   0.0000       3.292905        89.6045 
 165   0.0000       3.293082        89.6093 
 166   0.0000       3.862620       105.1072 
 167   0.0000       3.862723       105.1100 
 168   0.0000       3.903863       106.2295 
 169   0.0000       4.393742       119.5598 
 170   0.0000       4.393780       119.5608 
 171   0.0000       4.408824       119.9702 
 172   0.0000       4.415630       120.1554 
 173   0.0000       4.415638       120.1556 
 174   0.0000       4.418714       120.2393 
 175   0.0000       4.436650       120.7274 
 176   0.0000       4.436666       120.7278 
 177   0.0000       4.437226       120.7431 
 178   0.0000       4.438382       120.7745 
 179   0.0000       4.454046       121.2008 
 180   0.0000       4.454073       121.2015 
 181   0.0000       4.455469       121.2395 
 182   0.0000       4.461296       121.3980 
 183   0.0000       4.467312       121.5617 
 184   0.0000       4.467341       121.5625 
 185   0.0000       4.481274       121.9417 
 186   0.0000       4.493644       122.2783 
 187   0.0000       4.493687       122.2794 
 188   0.0000       4.568461       124.3141 
 189   0.0000       4.568506       124.3154 
 190   0.0000       4.579261       124.6080 
 191   0.0000       4.604107       125.2841 
 192   0.0000       4.622624       125.7880 
 193   0.0000       4.622633       125.7882 
 194   0.0000       4.786835       130.2564 
 195   0.0000       4.786959       130.2598 
 196   0.0000       4.819323       131.1405 
 197   0.0000       5.171038       140.7111 
 198   0.0000       5.171849       140.7332 
 199   0.0000       5.171992       140.7371 
 200   0.0000       5.172587       140.7532 
 201   0.0000       5.172737       140.7573 
 202   0.0000       5.173290       140.7724 
 203   0.0000       5.173618       140.7813 
 204   0.0000       5.174817       140.8139 
 205   0.0000       5.175103       140.8217 
 206   0.0000       5.175293       140.8269 
 207   0.0000       5.175468       140.8316 
 208   0.0000       5.175884       140.8430 
 209   0.0000       5.176104       140.8490 
 210   0.0000       5.176133       140.8497 
 211   0.0000       5.176834       140.8688 
 212   0.0000       5.176868       140.8698 
 213   0.0000       5.178211       140.9063 
 214   0.0000       5.178285       140.9083 
 215   0.0000       5.181597       140.9984 
 216   0.0000       5.181658       141.0001 
 217   0.0000       5.184896       141.0882 
 218   0.0000       5.188244       141.1793 
 219   0.0000       5.188359       141.1824 
 220   0.0000       5.197265       141.4248 
 221   0.0000       5.203404       141.5918 
 222   0.0000       5.203959       141.6069 
 223   0.0000       5.204548       141.6230 
 224   0.0000       5.204584       141.6239 
 225   0.0000       5.205271       141.6426 
 226   0.0000       5.205493       141.6487 
 227   0.0000       5.205765       141.6561 
 228   0.0000       5.209068       141.7460 
 229   0.0000       5.209972       141.7705 
 230   0.0000       5.323228       144.8524 
 231   0.0000       5.323290       144.8541 
 232   0.0000       5.358524       145.8129 
 233   0.0000      33.025943       898.6816 
 234   0.0000      33.277619       905.5300 
 235   0.0000      33.426888       909.5919 
 236   0.0000      33.426896       909.5921 
 237   0.0000     110.393929      3003.9715 
 238   0.0000     110.481311      3006.3493 
 239   0.0000     110.514898      3007.2633 
 240   0.0000     110.514902      3007.2634 

                    ********************************
                    * MULLIKEN POPULATION ANALYSIS *
                    ********************************

--------------------------------------------
MULLIKEN ATOMIC CHARGES AND SPIN POPULATIONS
--------------------------------------------
   0 Ag:    0.451959    0.092231
   1 Ag:    0.451682    0.092246
   2 Ag:    0.451680    0.092247
   3 Ag:    0.408780    0.424636
   4 H :    0.235898    0.298640
Sum of atomic charges         :    2.0000000
Sum of atomic spin populations:    1.0000000

-----------------------------------------------------
MULLIKEN REDUCED ORBITAL CHARGES AND SPIN POPULATIONS
-----------------------------------------------------
CHARGE
  0 Ags       :     2.470340  s :     2.470340
      pz      :     2.093655  p :     6.222503
      px      :     2.015132
      py      :     2.113715
      dz2     :     1.977283  d :     9.853376
      dxz     :     1.995634
      dyz     :     1.946096
      dx2y2   :     1.984293
      dxy     :     1.950069
      f0      :     0.000223  f :     0.001803
      f+1     :     0.000088
      f-1     :     0.000275
      f+2     :     0.000409
      f-2     :     0.000151
      f+3     :     0.000364
      f-3     :     0.000293
      g0      :     0.000002  g :     0.000018
      g+1     :     0.000001
      g-1     :     0.000002
      g+2     :     0.000002
      g-2     :     0.000002
      g+3     :     0.000002
      g-3     :     0.000002
      g+4     :     0.000003
      g-4     :     0.000003
  1 Ags       :     2.470523  s :     2.470523
      pz      :     2.093636  p :     6.222577
      px      :     2.089128
      py      :     2.039813
      dz2     :     1.977292  d :     9.853395
      dxz     :     1.958473
      dyz     :     1.983243
      dx2y2   :     1.958642
      dxy     :     1.975744
      f0      :     0.000224  f :     0.001804
      f+1     :     0.000228
      f-1     :     0.000134
      f+2     :     0.000216
      f-2     :     0.000345
      f+3     :     0.000364
      f-3     :     0.000294
      g0      :     0.000002  g :     0.000019
      g+1     :     0.000002
      g-1     :     0.000001
      g+2     :     0.000002
      g-2     :     0.000002
      g+3     :     0.000001
      g-3     :     0.000002
      g+4     :     0.000003
      g-4     :     0.000003
  2 Ags       :     2.470525  s :     2.470525
      pz      :     2.093636  p :     6.222578
      px      :     2.089128
      py      :     2.039814
      dz2     :     1.977292  d :     9.853395
      dxz     :     1.958473
      dyz     :     1.983243
      dx2y2   :     1.958642
      dxy     :     1.975744
      f0      :     0.000224  f :     0.001804
      f+1     :     0.000228
      f-1     :     0.000134
      f+2     :     0.000216
      f-2     :     0.000345
      f+3     :     0.000364
      f-3     :     0.000294
      g0      :     0.000002  g :     0.000019
      g+1     :     0.000002
      g-1     :     0.000001
      g+2     :     0.000002
      g-2     :     0.000002
      g+3     :     0.000001
      g-3     :     0.000002
      g+4     :     0.000003
      g-4     :     0.000003
  3 Ags       :     2.601491  s :     2.601491
      pz      :     2.073299  p :     6.093709
      px      :     2.010205
      py      :     2.010205
      dz2     :     1.988891  d :     9.895375
      dxz     :     1.959723
      dyz     :     1.959729
      dx2y2   :     1.993516
      dxy     :     1.993517
      f0      :     0.000119  f :     0.000639
      f+1     :     0.000152
      f-1     :     0.000152
      f+2     :     0.000093
      f-2     :     0.000093
      f+3     :     0.000013
      f-3     :     0.000018
      g0      :     0.000001  g :     0.000006
      g+1     :     0.000001
      g-1     :     0.000001
      g+2     :     0.000001
      g-2     :     0.000001
      g+3     :     0.000000
      g-3     :     0.000000
      g+4     :     0.000000
      g-4     :     0.000000
  4 H s       :     0.804550  s :     0.804550
      pz      :    -0.049559  p :    -0.042492
      px      :     0.003531
      py      :     0.003536
      dz2     :     0.000459  d :     0.002045
      dxz     :     0.000391
      dyz     :     0.000391
      dx2y2   :     0.000402
      dxy     :     0.000402

SPIN
  0 Ags       :    -0.006825  s :    -0.006825
      pz      :     0.067049  p :     0.061497
      px      :     0.000202
      py      :    -0.005755
      dz2     :    -0.000846  d :     0.037366
      dxz     :    -0.000410
      dyz     :     0.035992
      dx2y2   :     0.002833
      dxy     :    -0.000203
      f0      :     0.000021  f :     0.000191
      f+1     :     0.000001
      f-1     :     0.000006
      f+2     :     0.000147
      f-2     :    -0.000002
      f+3     :    -0.000003
      f-3     :     0.000021
      g0      :     0.000000  g :     0.000002
      g+1     :     0.000000
      g-1     :    -0.000000
      g+2     :     0.000000
      g-2     :    -0.000000
      g+3     :     0.000000
      g-3     :     0.000001
      g+4     :     0.000000
      g-4     :     0.000000
  1 Ags       :    -0.006817  s :    -0.006817
      pz      :     0.067035  p :     0.061497
      px      :    -0.004255
      py      :    -0.001283
      dz2     :    -0.000844  d :     0.037373
      dxz     :     0.026889
      dyz     :     0.008691
      dx2y2   :     0.000558
      dxy     :     0.002079
      f0      :     0.000021  f :     0.000191
      f+1     :     0.000004
      f-1     :     0.000002
      f+2     :     0.000035
      f-2     :     0.000110
      f+3     :    -0.000003
      f-3     :     0.000022
      g0      :     0.000000  g :     0.000002
      g+1     :    -0.000000
      g-1     :    -0.000000
      g+2     :    -0.000000
      g-2     :     0.000000
      g+3     :     0.000000
      g-3     :     0.000001
      g+4     :     0.000000
      g-4     :     0.000000
  2 Ags       :    -0.006816  s :    -0.006816
      pz      :     0.067035  p :     0.061498
      px      :    -0.004254
      py      :    -0.001283
      dz2     :    -0.000844  d :     0.037373
      dxz     :     0.026889
      dyz     :     0.008691
      dx2y2   :     0.000558
      dxy     :     0.002079
      f0      :     0.000021  f :     0.000191
      f+1     :     0.000004
      f-1     :     0.000002
      f+2     :     0.000035
      f-2     :     0.000110
      f+3     :    -0.000003
      f-3     :     0.000022
      g0      :     0.000000  g :     0.000002
      g+1     :    -0.000000
      g-1     :    -0.000000
      g+2     :    -0.000000
      g-2     :     0.000000
      g+3     :     0.000000
      g-3     :     0.000001
      g+4     :     0.000000
      g-4     :     0.000000
  3 Ags       :     0.408731  s :     0.408731
      pz      :     0.018544  p :     0.022369
      px      :     0.001913
      py      :     0.001913
      dz2     :    -0.000311  d :    -0.006495
      dxz     :    -0.002616
      dyz     :    -0.002614
      dx2y2   :    -0.000477
      dxy     :    -0.000477
      f0      :     0.000015  f :     0.000031
      f+1     :     0.000003
      f-1     :     0.000003
      f+2     :     0.000003
      f-2     :     0.000003
      f+3     :     0.000001
      f-3     :     0.000003
      g0      :     0.000000  g :     0.000000
      g+1     :    -0.000000
      g-1     :    -0.000000
      g+2     :    -0.000000
      g-2     :    -0.000000
      g+3     :     0.000000
      g-3     :     0.000000
      g+4     :     0.000000
      g-4     :     0.000000
  4 H s       :     0.306632  s :     0.306632
      pz      :    -0.010944  p :    -0.008003
      px      :     0.001470
      py      :     0.001471
      dz2     :     0.000025  d :     0.000011
      dxz     :    -0.000016
      dyz     :    -0.000016
      dx2y2   :     0.000009
      dxy     :     0.000009


                     *******************************
                     * LOEWDIN POPULATION ANALYSIS *
                     *******************************

-------------------------------------------
LOEWDIN ATOMIC CHARGES AND SPIN POPULATIONS
-------------------------------------------
   0 Ag:    0.552846    0.175646
   1 Ag:    0.552828    0.175642
   2 Ag:    0.552827    0.175642
   3 Ag:    0.494619    0.283408
   4 H :   -0.153120    0.189663

----------------------------------------------------
LOEWDIN REDUCED ORBITAL CHARGES AND SPIN POPULATIONS
----------------------------------------------------
CHARGE
  0 Ags       :     2.250759  s :     2.250759
      pz      :     2.144703  p :     6.316019
      px      :     2.021414
      py      :     2.149902
      dz2     :     1.978718  d :     9.877256
      dxz     :     1.992067
      dyz     :     1.962811
      dx2y2   :     1.986814
      dxy     :     1.956846
      f0      :     0.000350  f :     0.003087
      f+1     :     0.000131
      f-1     :     0.000422
      f+2     :     0.000979
      f-2     :     0.000176
      f+3     :     0.000565
      f-3     :     0.000463
      g0      :     0.000003  g :     0.000032
      g+1     :     0.000001
      g-1     :     0.000003
      g+2     :     0.000004
      g-2     :     0.000003
      g+3     :     0.000002
      g-3     :     0.000008
      g+4     :     0.000004
      g-4     :     0.000004
  1 Ags       :     2.250781  s :     2.250781
      pz      :     2.144692  p :     6.316013
      px      :     2.117782
      py      :     2.053540
      dz2     :     1.978720  d :     9.877258
      dxz     :     1.970122
      dyz     :     1.984748
      dx2y2   :     1.964352
      dxy     :     1.979317
      f0      :     0.000350  f :     0.003088
      f+1     :     0.000350
      f-1     :     0.000204
      f+2     :     0.000377
      f-2     :     0.000779
      f+3     :     0.000565
      f-3     :     0.000463
      g0      :     0.000003  g :     0.000032
      g+1     :     0.000003
      g-1     :     0.000001
      g+2     :     0.000003
      g-2     :     0.000004
      g+3     :     0.000002
      g-3     :     0.000008
      g+4     :     0.000004
      g-4     :     0.000004
  2 Ags       :     2.250781  s :     2.250781
      pz      :     2.144692  p :     6.316013
      px      :     2.117782
      py      :     2.053540
      dz2     :     1.978720  d :     9.877258
      dxz     :     1.970122
      dyz     :     1.984748
      dx2y2   :     1.964352
      dxy     :     1.979317
      f0      :     0.000350  f :     0.003088
      f+1     :     0.000350
      f-1     :     0.000204
      f+2     :     0.000377
      f-2     :     0.000779
      f+3     :     0.000565
      f-3     :     0.000463
      g0      :     0.000003  g :     0.000032
      g+1     :     0.000003
      g-1     :     0.000001
      g+2     :     0.000003
      g-2     :     0.000004
      g+3     :     0.000002
      g-3     :     0.000008
      g+4     :     0.000004
      g-4     :     0.000004
  3 Ags       :     2.431412  s :     2.431412
      pz      :     2.122793  p :     6.155813
      px      :     2.016510
      py      :     2.016510
      dz2     :     1.995583  d :     9.917141
      dxz     :     1.966412
      dyz     :     1.966416
      dx2y2   :     1.994364
      dxy     :     1.994365
      f0      :     0.000175  f :     0.001007
      f+1     :     0.000269
      f-1     :     0.000269
      f+2     :     0.000127
      f-2     :     0.000127
      f+3     :     0.000019
      f-3     :     0.000021
      g0      :     0.000001  g :     0.000009
      g+1     :     0.000002
      g-1     :     0.000002
      g+2     :     0.000001
      g-2     :     0.000001
      g+3     :     0.000000
      g-3     :     0.000000
      g+4     :     0.000000
      g-4     :     0.000000
  4 H s       :     0.843605  s :     0.843605
      pz      :     0.127945  p :     0.298790
      px      :     0.085428
      py      :     0.085417
      dz2     :     0.001564  d :     0.010725
      dxz     :     0.002665
      dyz     :     0.002665
      dx2y2   :     0.001916
      dxy     :     0.001916

SPIN
  0 Ags       :     0.002277  s :     0.002277
      pz      :     0.112562  p :     0.116110
      px      :     0.000281
      py      :     0.003267
      dz2     :    -0.000042  d :     0.056654
      dxz     :    -0.000276
      dyz     :     0.053264
      dx2y2   :     0.003863
      dxy     :    -0.000155
      f0      :     0.000052  f :     0.000599
      f+1     :     0.000001
      f-1     :     0.000018
      f+2     :     0.000446
      f-2     :     0.000002
      f+3     :    -0.000001
      f-3     :     0.000081
      g0      :     0.000001  g :     0.000006
      g+1     :     0.000000
      g-1     :     0.000000
      g+2     :     0.000001
      g-2     :    -0.000000
      g+3     :     0.000000
      g-3     :     0.000003
      g+4     :     0.000001
      g-4     :     0.000000
  1 Ags       :     0.002274  s :     0.002274
      pz      :     0.112554  p :     0.116104
      px      :     0.002522
      py      :     0.001027
      dz2     :    -0.000041  d :     0.056658
      dxz     :     0.039878
      dyz     :     0.013111
      dx2y2   :     0.000851
      dxy     :     0.002860
      f0      :     0.000052  f :     0.000599
      f+1     :     0.000014
      f-1     :     0.000005
      f+2     :     0.000113
      f-2     :     0.000335
      f+3     :    -0.000001
      f-3     :     0.000081
      g0      :     0.000001  g :     0.000006
      g+1     :     0.000000
      g-1     :     0.000000
      g+2     :     0.000000
      g-2     :     0.000001
      g+3     :     0.000000
      g-3     :     0.000003
      g+4     :     0.000000
      g-4     :     0.000001
  2 Ags       :     0.002275  s :     0.002275
      pz      :     0.112554  p :     0.116104
      px      :     0.002522
      py      :     0.001027
      dz2     :    -0.000041  d :     0.056658
      dxz     :     0.039878
      dyz     :     0.013111
      dx2y2   :     0.000851
      dxy     :     0.002860
      f0      :     0.000052  f :     0.000599
      f+1     :     0.000014
      f-1     :     0.000005
      f+2     :     0.000113
      f-2     :     0.000335
      f+3     :    -0.000001
      f-3     :     0.000081
      g0      :     0.000001  g :     0.000006
      g+1     :     0.000000
      g-1     :     0.000000
      g+2     :     0.000000
      g-2     :     0.000001
      g+3     :     0.000000
      g-3     :     0.000003
      g+4     :     0.000000
      g-4     :     0.000001
  3 Ags       :     0.287302  s :     0.287302
      pz      :     0.001472  p :     0.004470
      px      :     0.001499
      py      :     0.001499
      dz2     :    -0.001099  d :    -0.008396
      dxz     :    -0.003212
      dyz     :    -0.003210
      dx2y2   :    -0.000438
      dxy     :    -0.000438
      f0      :     0.000024  f :     0.000032
      f+1     :    -0.000001
      f-1     :    -0.000001
      f+2     :     0.000003
      f-2     :     0.000003
      f+3     :     0.000001
      f-3     :     0.000002
      g0      :     0.000000  g :     0.000000
      g+1     :    -0.000000
      g-1     :    -0.000000
      g+2     :    -0.000000
      g-2     :    -0.000000
      g+3     :     0.000000
      g-3     :     0.000000
      g+4     :     0.000000
      g-4     :     0.000000
  4 H s       :     0.172578  s :     0.172578
      pz      :     0.016090  p :     0.017143
      px      :     0.000527
      py      :     0.000526
      dz2     :     0.000008  d :    -0.000058
      dxz     :    -0.000032
      dyz     :    -0.000032
      dx2y2   :    -0.000001
      dxy     :    -0.000001


                      *****************************
                      * MAYER POPULATION ANALYSIS *
                      *****************************

  NA   - Mulliken gross atomic population
  ZA   - Total nuclear charge
  QA   - Mulliken gross atomic charge
  VA   - Mayer's total valence
  BVA  - Mayer's bonded valence
  FA   - Mayer's free valence

  ATOM       NA         ZA         QA         VA         BVA        FA
  0 Ag    18.5480    19.0000     0.4520     1.3517     1.3314     0.0203
  1 Ag    18.5483    19.0000     0.4517     1.3519     1.3316     0.0203
  2 Ag    18.5483    19.0000     0.4517     1.3519     1.3316     0.0203
  3 Ag    18.5912    19.0000     0.4088     1.1633     0.9817     0.1816
  4 H      0.7641     1.0000     0.2359     0.7272     0.6418     0.0854

  Mayer bond orders larger than 0.100000
B(  0-Ag,  1-Ag) :   0.4044 B(  0-Ag,  2-Ag) :   0.4044 B(  0-Ag,  3-Ag) :   0.3180 
B(  0-Ag,  4-H ) :   0.2046 B(  1-Ag,  2-Ag) :   0.4044 B(  1-Ag,  3-Ag) :   0.3180 
B(  1-Ag,  4-H ) :   0.2047 B(  2-Ag,  3-Ag) :   0.3180 B(  2-Ag,  4-H ) :   0.2047 


-------
TIMINGS
-------

Total SCF time: 0 days 0 hours 0 min 10 sec 

Total time                  ....      10.986 sec
Sum of individual times     ....      10.721 sec  ( 97.6%)

Fock matrix formation       ....       8.747 sec  ( 79.6%)
  XC integration            ....       1.207 sec  ( 13.8% of F)
    Basis function eval.    ....       0.072 sec  (  5.9% of XC)
    Density eval.           ....       0.217 sec  ( 18.0% of XC)
    XC-Functional eval.     ....       0.040 sec  (  3.4% of XC)
    XC-Potential eval.      ....       0.432 sec  ( 35.8% of XC)
Diagonalization             ....       0.208 sec  (  1.9%)
Density matrix formation    ....       0.023 sec  (  0.2%)
Population analysis         ....       0.017 sec  (  0.2%)
Initial guess               ....       1.276 sec  ( 11.6%)
Orbital Transformation      ....       0.000 sec  (  0.0%)
Orbital Orthonormalization  ....       0.000 sec  (  0.0%)
DIIS solution               ....       0.070 sec  (  0.6%)
Grid generation             ....       0.380 sec  (  3.5%)


-------------------------------------------------------------------------------
                          DFT DISPERSION CORRECTION                            
                                                                               
                              DFTD3 V3.1  Rev 1                                
                          USING Becke-Johnson damping                          
-------------------------------------------------------------------------------
The TPSSH functional is recognized
Active option DFTDOPT                   ...         4   

molecular C6(AA) [au] = 4524.494390 


            DFT-D V3
 parameters
 s6 scaling factor         :     1.0000 
 a1 scaling factor         :     0.4529 
 s8 scaling factor         :     2.2382 
 a2 scaling factor         :     4.6550 
 ad hoc parameters k1-k3   :    16.0000     1.3333    -4.0000 

 Edisp/kcal,au: -7.851743928707  -0.012512549078 
 E6   /kcal   :  -2.334433108 
 E8   /kcal   :  -5.517310821 
 % E8         :  70.268603646 

-------------------------   ----------------
Dispersion correction           -0.012512549
-------------------------   ----------------


-------------------------   --------------------
FINAL SINGLE POINT ENERGY      -587.741239659772
-------------------------   --------------------


                            ***************************************
                            *     ORCA property calculations      *
                            ***************************************

                                    ---------------------
                                    Active property flags
                                    ---------------------
   (+) Dipole Moment


------------------------------------------------------------------------------
                       ORCA ELECTRIC PROPERTIES CALCULATION
------------------------------------------------------------------------------

Dipole Moment Calculation                       ... on
Quadrupole Moment Calculation                   ... off
Polarizability Calculation                      ... off
GBWName                                         ... Ag04C2_H_F.gbw
Electron density file                           ... Ag04C2_H_F.scfp
The origin for moment calculation is the CENTER OF MASS  = ( 0.000000, -0.000000  0.009647)

-------------
DIPOLE MOMENT
-------------
                                X             Y             Z
Electronic contribution:      0.00000      -0.00004       2.54162
Nuclear contribution   :      0.00000       0.00000      -2.67399
                        -----------------------------------------
Total Dipole Moment    :      0.00000      -0.00003      -0.13237
                        -----------------------------------------
Magnitude (a.u.)       :      0.13237
Magnitude (Debye)      :      0.33645



--------------------
Rotational spectrum 
--------------------
 
Rotational constants in cm-1:     0.020237     0.018353     0.018353 
Rotational constants in MHz :   606.690796   550.208253   550.208173 

 Dipole components along the rotational axes: 
x,y,z [a.u.] :     0.132369     0.000000     0.000035 
x,y,z [Debye]:     0.336455     0.000000     0.000088 

 

Timings for individual modules:

Sum of individual times         ...       12.888 sec (=   0.215 min)
GTO integral calculation        ...        1.524 sec (=   0.025 min)  11.8 %
SCF iterations                  ...       11.364 sec (=   0.189 min)  88.2 %
                             ****ORCA TERMINATED NORMALLY****
TOTAL RUN TIME: 0 days 0 hours 0 minutes 13 seconds 407 msec
