
                                 *****************
                                 * O   R   C   A *
                                 *****************

           --- An Ab Initio, DFT and Semiempirical electronic structure package ---

                  #######################################################
                  #                        -***-                        #
                  #          Department of theory and spectroscopy      #
                  #               Directorship: Frank Neese             #
                  #        Max Planck Institute fuer Kohlenforschung    #
                  #                Kaiser Wilhelm Platz 1               #
                  #                 D-45470 Muelheim/Ruhr               #
                  #                      Germany                        #
                  #                                                     #
                  #                  All rights reserved                #
                  #                        -***-                        #
                  #######################################################


                         Program Version 4.2.0 -  RELEASE  -


 With contributions from (in alphabetic order):
   Daniel Aravena         : Magnetic Suceptibility
   Michael Atanasov       : Ab Initio Ligand Field Theory (pilot matlab implementation)
   Alexander A. Auer      : GIAO ZORA, VPT2
   Ute Becker             : Parallelization
   Giovanni Bistoni       : ED, misc. LED, open-shell LED, HFLED
   Martin Brehm           : Molecular dynamics
   Dmytro Bykov           : SCF Hessian
   Vijay G. Chilkuri      : MRCI spin determinant printing, contributions to CSF-ICE
   Dipayan Datta          : RHF DLPNO-CCSD density
   Achintya Kumar Dutta   : EOM-CC, STEOM-CC
   Dmitry Ganyushin       : Spin-Orbit,Spin-Spin,Magnetic field MRCI
   Miquel Garcia          : C-PCM Hessian, Gaussian charge scheme
   Yang Guo               : DLPNO-NEVPT2, CIM, IAO-localization
   Andreas Hansen         : Spin unrestricted coupled pair/coupled cluster methods
   Benjamin Helmich-Paris : CASSCF linear response (MC-RPA)
   Lee Huntington         : MR-EOM, pCC
   Robert Izsak           : Overlap fitted RIJCOSX, COSX-SCS-MP3, EOM
   Christian Kollmar      : KDIIS, OOCD, Brueckner-CCSD(T), CCSD density
   Simone Kossmann        : Meta GGA functionals, TD-DFT gradient, OOMP2, MP2 Hessian
   Martin Krupicka        : AUTO-CI
   Lucas Lang             : DCDCAS
   Dagmar Lenk            : GEPOL surface, SMD
   Dimitrios Liakos       : Extrapolation schemes; Compound Job, initial MDCI parallelization
   Dimitrios Manganas     : Further ROCIS development; embedding schemes
   Dimitrios Pantazis     : SARC Basis sets
   Taras Petrenko         : DFT Hessian,TD-DFT gradient, ASA, ECA, R-Raman, ABS, FL, XAS/XES, NRVS
   Peter Pinski           : DLPNO-MP2, DLPNO-MP2 Gradient
   Christoph Reimann      : Effective Core Potentials
   Marius Retegan         : Local ZFS, SOC
   Christoph Riplinger    : Optimizer, TS searches, QM/MM, DLPNO-CCSD(T), (RO)-DLPNO pert. Triples
   Tobias Risthaus        : Range-separated hybrids, TD-DFT gradient, RPA, STAB
   Michael Roemelt        : Original ROCIS implementation
   Masaaki Saitow         : Open-shell DLPNO-CCSD energy and density
   Barbara Sandhoefer     : DKH picture change effects
   Avijit Sen             : IP-ROCIS
   Kantharuban Sivalingam : CASSCF convergence, NEVPT2, FIC-MRCI
   Bernardo de Souza      : ESD, SOC TD-DFT
   Georgi Stoychev        : AutoAux, RI-MP2 NMR
   Willem Van den Heuvel  : Paramagnetic NMR
   Boris Wezisla          : Elementary symmetry handling
   Frank Wennmohs         : Technical directorship


 We gratefully acknowledge several colleagues who have allowed us to
 interface, adapt or use parts of their codes:
   Stefan Grimme, W. Hujo, H. Kruse,             : VdW corrections, initial TS optimization,
                  C. Bannwarth                     DFT functionals, gCP, sTDA/sTD-DF
   Ed Valeev, F. Pavosevic, A. Kumar             : LibInt (2-el integral package), F12 methods
   Garnet Chan, S. Sharma, J. Yang, R. Olivares  : DMRG
   Ulf Ekstrom                                   : XCFun DFT Library
   Mihaly Kallay                                 : mrcc  (arbitrary order and MRCC methods)
   Andreas Klamt, Michael Diedenhofen            : otool_cosmo (COSMO solvation model)
   Jiri Pittner, Ondrej Demel                    : Mk-CCSD
   Frank Weinhold                                : gennbo (NPA and NBO analysis)
   Christopher J. Cramer and Donald G. Truhlar   : smd solvation model
   Lars Goerigk                                  : TD-DFT with DH, B97 family of functionals
   V. Asgeirsson, H. Jonsson                     : NEB implementation
   FAccTs GmbH                                   : IRC, NEB, NEB-TS, Multilevel, MM, QM/MM, CI optimization
   S Lehtola, MJT Oliveira, MAL Marques          : LibXC Library


 Your calculation uses the libint2 library for the computation of 2-el integrals
 For citations please refer to: http://libint.valeyev.net

 Your ORCA version has been built with support for libXC version: 4.2.3
 For citations please refer to: https://tddft.org/programs/libxc/

 This ORCA versions uses:
   CBLAS   interface :  Fast vector & matrix operations
   LAPACKE interface :  Fast linear algebra routines
   SCALAPACK package :  Parallel linear algebra routines


Your calculation utilizes the atom-pairwise dispersion correction
with the Becke-Johnson damping scheme (D3BJ)
Cite in your paper:
S.Grimme, S.Ehrlich, L.Goerigk, J Comput Chem, (2011), 32, 1456–1465 
S.Grimme, J.Antony, S.Ehrlich and H.Krieg, J.Chem.Phys., 132, (2010), 154104 
   

----- Orbital basis set information -----
Your calculation utilizes the basis: def2-TZVPPD
   F. Weigend and R. Ahlrichs, Phys. Chem. Chem. Phys. 7, 3297 (2005).
   D. Rappoport and F. Furche, J. Chem. Phys. 133 134105 (2010).

----- AuxJK basis set information -----
Your calculation utilizes the auxiliary basis: def2/JK
   H-Ba, Hf-Rn: F. Weigend, J. Comput. Chem. 29, 167 (2008).

cite the ECPs for Ag [Def2-ECP] as follows:
Ce-Yb(ecp-28): M. Dolg, H. Stoll, H.Preuss, J. Chem. Phys., 1989, 90, 1730-1734.
Y-Cd(ecp-28), Hf-Hg(ecp-46): D. Andrae,U. Haeussermann, M. Dolg, H. Stoll, H. Preuss, Theor. Chim. Acta, 1990, 77, 123-141.
In-Sb(ecp-28), Tl-Bi(ecp-46): B. Metz, H. Stoll, M. Dolg, J. Chem. Phys., 2000, 113, 2563-2569.
Te-Xe(ecp-28), Po-Rn(ecp-46): K. A. Peterson, D. Figgen, E. Goll, H. Stoll, M. Dolg, J. Chem. Phys., 2003, 119, 11113-11123.
Rb(ecp-28), Cs(ecp-46): T. Leininger, A. Nicklass, W. Kuechle, H. Stoll, M. Dolg, A. Bergner, Chem. Phys. Lett., 1996, 255, 274-280.
Sr(ecp-28), Ba(ecp-46): M. Kaupp, P. V. Schleyer, H. Stoll and H. Preuss, J. Chem. Phys., 1991, 94, 1360-1366.
La(ecp-46): M. Dolg, H. Stoll, A. Savin, H. Preuss, Theor. Chim. Acta, 1989, 75, 173-194.
Lu(ecp-28): X. Cao, M. Dolg, J. Chem. Phys., 2001, 115, 7348-7355.

ECP parameters for Ag [Def2-ECP] have been obtained from:
TURBOMOLE (7.0.2)

================================================================================
                                        WARNINGS
                       Please study these warnings very carefully!
================================================================================


INFO   : the flag for use of LIBINT has been found!

================================================================================
                                       INPUT FILE
================================================================================
NAME = Ag04C2.in
|  1> #
|  2> # Ag04C2 TPSSh-D3BJ/Def2-TZVPPD
|  3> #
|  4> ! tpssh d3bj def2-tzvppd def2/jk grid4 nofinalgrid
|  5> 
|  6> *xyz 2 1
|  7> Ag      -0.000000   -0.000016    1.715553 
|  8> Ag       0.000000   -1.617524   -0.571836 
|  9> Ag       1.400774    0.808769   -0.571859 
| 10> Ag      -1.400774    0.808770   -0.571858 
| 11> *
| 12> 
| 13> %maxcore 5000
| 14> 
| 15> %pal
| 16> nprocs = 24
| 17> end
| 18> 
| 19> 
| 20>                          ****END OF INPUT****
================================================================================

                       ****************************
                       * Single Point Calculation *
                       ****************************

---------------------------------
CARTESIAN COORDINATES (ANGSTROEM)
---------------------------------
  Ag    -0.000000   -0.000016    1.715553
  Ag     0.000000   -1.617524   -0.571836
  Ag     1.400774    0.808769   -0.571859
  Ag    -1.400774    0.808770   -0.571858

----------------------------
CARTESIAN COORDINATES (A.U.)
----------------------------
  NO LB      ZA    FRAG     MASS         X           Y           Z
   0 Ag   19.0000*   0   107.870   -0.000000   -0.000030    3.241925
   1 Ag   19.0000*   0   107.870    0.000000   -3.056677   -1.080613
   2 Ag   19.0000*   0   107.870    2.647079    1.528352   -1.080657
   3 Ag   19.0000*   0   107.870   -2.647079    1.528354   -1.080655
* core charge reduced due to ECP

--------------------------------
INTERNAL COORDINATES (ANGSTROEM)
--------------------------------
 Ag     0   0   0     0.000000000000     0.00000000     0.00000000
 Ag     1   0   0     2.801513977724     0.00000000     0.00000000
 Ag     1   2   0     2.801527196556    60.00230934     0.00000000
 Ag     1   2   3     2.801526668763    60.00233602    70.52749234

---------------------------
INTERNAL COORDINATES (A.U.)
---------------------------
 Ag     0   0   0     0.000000000000     0.00000000     0.00000000
 Ag     1   0   0     5.294094178251     0.00000000     0.00000000
 Ag     1   2   0     5.294119158224    60.00230934     0.00000000
 Ag     1   2   3     5.294118160840    60.00233602    70.52749234

---------------------
BASIS SET INFORMATION
---------------------
There are 1 groups of distinct atoms

 Group   1 Type Ag  : 7s7p6d2f1g contracted to 6s4p3d2f1g pattern {211111/4111/411/11/1}

Atom   0Ag   basis set group =>   1
Atom   1Ag   basis set group =>   1
Atom   2Ag   basis set group =>   1
Atom   3Ag   basis set group =>   1
----------------------------------
AUXILIARY/JK BASIS SET INFORMATION
----------------------------------
There are 1 groups of distinct atoms

 Group   1 Type Ag  : 13s12p10d9f6g3h2i contracted to 11s10p9d8f6g3h2i pattern {31111111111/3111111111/211111111/21111111/111111/111/11}

Atom   0Ag   basis set group =>   1
Atom   1Ag   basis set group =>   1
Atom   2Ag   basis set group =>   1
Atom   3Ag   basis set group =>   1
-------------------------
ECP PARAMETER INFORMATION
-------------------------

 Group 1, Type Ag ECP Def2-ECP (replacing 28 core electrons, lmax=3)

Atom   0Ag   ECP group =>   1
Atom   1Ag   ECP group =>   1
Atom   2Ag   ECP group =>   1
Atom   3Ag   ECP group =>   1



           ************************************************************
           *        Program running with 24 parallel MPI-processes    *
           *              working on a common directory               *
           ************************************************************
------------------------------------------------------------------------------
                           ORCA GTO INTEGRAL CALCULATION
------------------------------------------------------------------------------

                         BASIS SET STATISTICS AND STARTUP INFO

 # of primitive gaussian shells          ...   92
 # of primitive gaussian functions       ...  324
 # of contracted shells                  ...   64
 # of contracted basis functions         ...  224
 Highest angular momentum                ...    4
 Maximum contraction depth               ...    4
 Integral package used                   ... LIBINT
 Integral threshhold            Thresh   ...  1.000e-10
 Primitive cut-off              TCut     ...  1.000e-11


------------------------------ INTEGRAL EVALUATION ----------------------------


 * One electron integrals 

   ECP integrals                         ... done
 Pre-screening matrix                    ... done
 Shell pair data                         ... done (   0.000 sec)



           ************************************************************
           *        Program running with 24 parallel MPI-processes    *
           *              working on a common directory               *
           ************************************************************
-------------------------------------------------------------------------------
                                 ORCA SCF
-------------------------------------------------------------------------------

------------
SCF SETTINGS
------------
Hamiltonian:
 Density Functional     Method          .... DFT(GTOs)
 Exchange Functional    Exchange        .... TPSS
 Correlation Functional Correlation     .... TPSS
 LDA part of GGA corr.  LDAOpt          .... PW91-LDA
 Gradients option       PostSCFGGA      .... off
 Hybrid DFT is turned on
   Fraction HF Exchange ScalHFX         ....  0.100000
   Scaling of DF-GGA-X  ScalDFX         ....  0.900000
   Scaling of DF-GGA-C  ScalDFC         ....  1.000000
   Scaling of DF-LDA-C  ScalLDAC        ....  1.000000
   Perturbative correction              ....  0.000000
   Density functional embedding theory  .... OFF
   NL short-range parameter             ....  5.200000


General Settings:
 Integral files         IntName         .... Ag04C2
 Hartree-Fock type      HFTyp           .... RHF
 Total Charge           Charge          ....    2
 Multiplicity           Mult            ....    1
 Number of Electrons    NEL             ....   74
 Basis Dimension        Dim             ....  224
 Nuclear Repulsion      ENuc            ....    409.1285852923 Eh

Convergence Acceleration:
 DIIS                   CNVDIIS         .... on
   Start iteration      DIISMaxIt       ....    12
   Startup error        DIISStart       ....  0.200000
   # of expansion vecs  DIISMaxEq       ....     5
   Bias factor          DIISBfac        ....   1.050
   Max. coefficient     DIISMaxC        ....  10.000
 Newton-Raphson         CNVNR           .... off
 SOSCF                  CNVSOSCF        .... off
 Level Shifting         CNVShift        .... on
   Level shift para.    LevelShift      ....    0.2500
   Turn off err/grad.   ShiftErr        ....    0.0010
 Zerner damping         CNVZerner       .... off
 Static damping         CNVDamp         .... on
   Fraction old density DampFac         ....    0.7000
   Max. Damping (<1)    DampMax         ....    0.9800
   Min. Damping (>=0)   DampMin         ....    0.0000
   Turn off err/grad.   DampErr         ....    0.1000
 Fernandez-Rico         CNVRico         .... off

SCF Procedure:
 Maximum # iterations   MaxIter         ....   125
 SCF integral mode      SCFMode         .... Direct
   Integral package                     .... LIBINT
 Reset frequency        DirectResetFreq ....    20
 Integral Threshold     Thresh          ....  1.000e-10 Eh
 Primitive CutOff       TCut            ....  1.000e-11 Eh

Convergence Tolerance:
 Convergence Check Mode ConvCheckMode   .... Total+1el-Energy
 Convergence forced     ConvForced      .... 0
 Energy Change          TolE            ....  1.000e-06 Eh
 1-El. energy change                    ....  1.000e-03 Eh
 DIIS Error             TolErr          ....  1.000e-06


Diagonalization of the overlap matrix:
Smallest eigenvalue                        ... 1.939e-03
Time for diagonalization                   ...    0.010 sec
Threshold for overlap eigenvalues          ... 1.000e-08
Number of eigenvalues below threshold      ... 0
Time for construction of square roots      ...    0.006 sec
Total time needed                          ...    0.016 sec

-------------------
DFT GRID GENERATION
-------------------

General Integration Accuracy     IntAcc      ...  4.670
Radial Grid Type                 RadialGrid  ... Gauss-Chebyshev
Angular Grid (max. acc.)         AngularGrid ... Lebedev-302
Angular grid pruning method      GridPruning ... 3 (G Style)
Weight generation scheme         WeightScheme... Becke
Basis function cutoff            BFCut       ...    1.0000e-10
Integration weight cutoff        WCut        ...    1.0000e-14
Grids for H and He will be reduced by one unit

# of grid points (after initial pruning)     ...  42632 (   0.0 sec)
# of grid points (after weights+screening)   ...  42209 (   0.0 sec)
nearest neighbour list constructed           ...    0.0 sec
Grid point re-assignment to atoms done       ...    0.0 sec
Grid point division into batches done        ...    0.3 sec
Reduced shell lists constructed in    0.3 sec

Total number of grid points                  ...    42209
Total number of batches                      ...      661
Average number of points per batch           ...       63
Average number of grid points per atom       ...    10552
Average number of shells per batch           ...     9.14 (14.28%)
Average number of basis functions per batch  ...    21.62 ( 9.65%)
Average number of large shells per batch     ...     5.93 (64.91%)
Average number of large basis fcns per batch ...    12.90 (59.65%)
Maximum spatial batch extension              ...  27.29, 26.58, 26.39 au
Average spatial batch extension              ...   0.56,  0.58,  0.53 au

Time for grid setup =    0.401 sec

------------------------------
INITIAL GUESS: MODEL POTENTIAL
------------------------------
Loading Hartree-Fock densities                     ... done
  calling /sw/apps/orca/orca_4_2_0_linux_x86-64_openmpi314/orca Ag04C2_atom47.inp > Ag04C2_atom47.out in order to generate an atomic fitting density for atom 0 (Ag with ECP) on-the-fly... 
    atom 0 (Ag), assumed electronic state with S=2: 1s2 2s2 2p6 3s2 3p6 4s2 3d10 4p6 5s2 4d9           ... done
Calculating cut-offs                               ... done
Setting up the integral package                    ... done
Initializing the effective Hamiltonian             ... done
Starting the Coulomb interaction                   ... done (   0.0 sec)
Reading the grid                                   ... done
Mapping shells                                     ... done
Starting the XC term evaluation                    ... done (   0.0 sec)
  promolecular density results
     # of electrons  =    188.001841056
     EX              =   -573.770022464
     EC              =     -9.973742427
     EX+EC           =   -583.743764890
Transforming the Hamiltonian                       ... done (   0.0 sec)
Diagonalizing the Hamiltonian                      ... done (   0.0 sec)
Back transforming the eigenvectors                 ... done (   0.0 sec)
Now organizing SCF variables                       ... done
                      ------------------
                      INITIAL GUESS DONE (   1.7 sec)
                      ------------------
--------------
SCF ITERATIONS
--------------
ITER       Energy         Delta-E        Max-DP      RMS-DP      [F,P]     Damp
               ***  Starting incremental Fock matrix formation  ***
  0   -586.9195364737   0.000000000000 0.08638852  0.00172651  0.5123042 0.7000
  1   -587.0457848361  -0.126248362327 0.04079921  0.00086824  0.3360996 0.7000
  2   -587.0899514123  -0.044166576267 0.01549599  0.00031425  0.2231779 0.7000
                               ***Turning on DIIS***
  3   -587.1185659776  -0.028614565231 0.00708396  0.00017950  0.1529392 0.7000
  4   -587.1395404288  -0.020974451285 0.00447603  0.00014968  0.1068661 0.7000
  5   -587.1543297836  -0.014789354721 0.01399460  0.00037992  0.0752457 0.0000
  6   -587.1887529928  -0.034423209287 0.00145862  0.00003979  0.0004405 0.0000
  7   -587.1887572502  -0.000004257387 0.00043194  0.00001291  0.0007770 0.0000
  8   -587.1887605684  -0.000003318208 0.00009179  0.00000320  0.0001796 0.0000
                 **** Energy Check signals convergence ****

               *****************************************************
               *                     SUCCESS                       *
               *           SCF CONVERGED AFTER   9 CYCLES          *
               *****************************************************


----------------
TOTAL SCF ENERGY
----------------

Total Energy       :         -587.18876079 Eh          -15978.21850 eV

Components:
Nuclear Repulsion  :          409.12858529 Eh           11132.95479 eV
Electronic Energy  :         -996.31734608 Eh          -27111.17329 eV
One Electron Energy:        -1833.76063074 Eh          -49899.16359 eV
Two Electron Energy:          837.44328466 Eh           22787.99029 eV

Virial components:
Potential Energy   :         -812.06791411 Eh          -22097.49136 eV
Kinetic Energy     :          224.87915332 Eh            6119.27286 eV
Virial Ratio       :            3.61113025


DFT components:
N(Alpha)           :       36.999996175525 electrons
N(Beta)            :       36.999996175525 electrons
N(Total)           :       73.999992351049 electrons
E(X)               :      -47.442898162254 Eh       
E(C)               :       -3.271415374801 Eh       
E(XC)              :      -50.714313537054 Eh       
DFET-embed. en.    :        0.000000000000 Eh       

---------------
SCF CONVERGENCE
---------------

  Last Energy change         ...   -2.2049e-07  Tolerance :   1.0000e-06
  Last MAX-Density change    ...    7.9163e-06  Tolerance :   1.0000e-05
  Last RMS-Density change    ...    2.7100e-07  Tolerance :   1.0000e-06
  Last DIIS Error            ...    1.5254e-05  Tolerance :   1.0000e-06

             **** THE GBW FILE WAS UPDATED (Ag04C2.gbw) ****
             **** DENSITY FILE WAS UPDATED (Ag04C2.scfp) ****
             **** ENERGY FILE WAS UPDATED (Ag04C2.en.tmp) ****
             **** THE GBW FILE WAS UPDATED (Ag04C2.gbw) ****
             **** DENSITY FILE WAS UPDATED (Ag04C2.scfp) ****
----------------
ORBITAL ENERGIES
----------------

  NO   OCC          E(Eh)            E(eV) 
   0   2.0000      -4.046052      -110.0987 
   1   2.0000      -4.045739      -110.0901 
   2   2.0000      -4.045737      -110.0901 
   3   2.0000      -4.045734      -110.0900 
   4   2.0000      -2.654944       -72.2447 
   5   2.0000      -2.652494       -72.1780 
   6   2.0000      -2.652493       -72.1780 
   7   2.0000      -2.652493       -72.1780 
   8   2.0000      -2.651250       -72.1442 
   9   2.0000      -2.651249       -72.1441 
  10   2.0000      -2.650387       -72.1207 
  11   2.0000      -2.650387       -72.1207 
  12   2.0000      -2.650385       -72.1206 
  13   2.0000      -2.650023       -72.1108 
  14   2.0000      -2.650022       -72.1108 
  15   2.0000      -2.650021       -72.1107 
  16   2.0000      -0.729914       -19.8620 
  17   2.0000      -0.704894       -19.1811 
  18   2.0000      -0.704883       -19.1809 
  19   2.0000      -0.704875       -19.1806 
  20   2.0000      -0.696801       -18.9609 
  21   2.0000      -0.696793       -18.9607 
  22   2.0000      -0.683492       -18.5988 
  23   2.0000      -0.683488       -18.5986 
  24   2.0000      -0.683475       -18.5983 
  25   2.0000      -0.664385       -18.0788 
  26   2.0000      -0.664372       -18.0785 
  27   2.0000      -0.664368       -18.0784 
  28   2.0000      -0.662836       -18.0367 
  29   2.0000      -0.662823       -18.0363 
  30   2.0000      -0.661729       -18.0066 
  31   2.0000      -0.661715       -18.0062 
  32   2.0000      -0.661699       -18.0057 
  33   2.0000      -0.646213       -17.5844 
  34   2.0000      -0.646212       -17.5843 
  35   2.0000      -0.646202       -17.5840 
  36   2.0000      -0.616684       -16.7808 
  37   0.0000      -0.447490       -12.1768 
  38   0.0000      -0.447485       -12.1767 
  39   0.0000      -0.447483       -12.1766 
  40   0.0000      -0.331290        -9.0149 
  41   0.0000      -0.320286        -8.7154 
  42   0.0000      -0.320284        -8.7154 
  43   0.0000      -0.320281        -8.7153 
  44   0.0000      -0.305861        -8.3229 
  45   0.0000      -0.305858        -8.3228 
  46   0.0000      -0.187970        -5.1149 
  47   0.0000      -0.187968        -5.1149 
  48   0.0000      -0.187966        -5.1148 
  49   0.0000      -0.184573        -5.0225 
  50   0.0000      -0.184571        -5.0224 
  51   0.0000      -0.184570        -5.0224 
  52   0.0000      -0.149292        -4.0624 
  53   0.0000      -0.116674        -3.1748 
  54   0.0000      -0.095999        -2.6123 
  55   0.0000      -0.095997        -2.6122 
  56   0.0000      -0.095995        -2.6122 
  57   0.0000      -0.094002        -2.5579 
  58   0.0000      -0.093999        -2.5579 
  59   0.0000      -0.077819        -2.1176 
  60   0.0000      -0.077819        -2.1176 
  61   0.0000      -0.077811        -2.1174 
  62   0.0000      -0.007794        -0.2121 
  63   0.0000      -0.007791        -0.2120 
  64   0.0000      -0.007789        -0.2119 
  65   0.0000       0.011847         0.3224 
  66   0.0000       0.011848         0.3224 
  67   0.0000       0.011852         0.3225 
  68   0.0000       0.035623         0.9694 
  69   0.0000       0.035635         0.9697 
  70   0.0000       0.035639         0.9698 
  71   0.0000       0.154842         4.2135 
  72   0.0000       0.154847         4.2136 
  73   0.0000       0.169171         4.6034 
  74   0.0000       0.185216         5.0400 
  75   0.0000       0.185217         5.0400 
  76   0.0000       0.185222         5.0401 
  77   0.0000       0.263090         7.1590 
  78   0.0000       0.263096         7.1592 
  79   0.0000       0.263104         7.1594 
  80   0.0000       0.276855         7.5336 
  81   0.0000       0.276856         7.5336 
  82   0.0000       0.329518         8.9667 
  83   0.0000       0.329523         8.9668 
  84   0.0000       0.329534         8.9671 
  85   0.0000       0.379368        10.3231 
  86   0.0000       0.379371        10.3232 
  87   0.0000       0.379373        10.3233 
  88   0.0000       1.121615        30.5207 
  89   0.0000       1.121647        30.5216 
  90   0.0000       1.159755        31.5585 
  91   0.0000       1.159783        31.5593 
  92   0.0000       1.159796        31.5597 
  93   0.0000       1.168666        31.8010 
  94   0.0000       1.170913        31.8622 
  95   0.0000       1.170947        31.8631 
  96   0.0000       1.170955        31.8633 
  97   0.0000       1.186339        32.2819 
  98   0.0000       1.186366        32.2827 
  99   0.0000       1.186376        32.2829 
 100   0.0000       1.189187        32.3594 
 101   0.0000       1.201117        32.6841 
 102   0.0000       1.201126        32.6843 
 103   0.0000       1.201871        32.7046 
 104   0.0000       1.201887        32.7050 
 105   0.0000       1.201911        32.7057 
 106   0.0000       1.211997        32.9801 
 107   0.0000       1.231220        33.5032 
 108   0.0000       1.231222        33.5033 
 109   0.0000       1.231248        33.5040 
 110   0.0000       1.235364        33.6160 
 111   0.0000       1.235367        33.6161 
 112   0.0000       1.235375        33.6163 
 113   0.0000       1.269622        34.5482 
 114   0.0000       1.269631        34.5484 
 115   0.0000       1.269645        34.5488 
 116   0.0000       1.276630        34.7389 
 117   0.0000       1.276637        34.7391 
 118   0.0000       1.276646        34.7393 
 119   0.0000       1.357056        36.9274 
 120   0.0000       1.369142        37.2563 
 121   0.0000       1.369145        37.2563 
 122   0.0000       1.377308        37.4785 
 123   0.0000       1.377310        37.4785 
 124   0.0000       1.377325        37.4789 
 125   0.0000       1.513967        41.1971 
 126   0.0000       1.513968        41.1972 
 127   0.0000       1.513981        41.1975 
 128   0.0000       1.598872        43.5075 
 129   0.0000       1.689940        45.9856 
 130   0.0000       1.689960        45.9862 
 131   0.0000       1.689987        45.9869 
 132   0.0000       1.716423        46.7062 
 133   0.0000       1.716489        46.7080 
 134   0.0000       1.717911        46.7467 
 135   0.0000       1.717955        46.7479 
 136   0.0000       1.717967        46.7483 
 137   0.0000       1.796869        48.8953 
 138   0.0000       1.796919        48.8967 
 139   0.0000       1.796943        48.8973 
 140   0.0000       1.804380        49.0997 
 141   0.0000       1.804424        49.1009 
 142   0.0000       1.804495        49.1028 
 143   0.0000       1.810991        49.2796 
 144   0.0000       1.811011        49.2801 
 145   0.0000       1.811050        49.2812 
 146   0.0000       1.822893        49.6034 
 147   0.0000       1.822982        49.6058 
 148   0.0000       2.226712        60.5919 
 149   0.0000       2.364282        64.3354 
 150   0.0000       2.364329        64.3367 
 151   0.0000       2.364356        64.3374 
 152   0.0000       4.378554       119.1465 
 153   0.0000       4.378607       119.1480 
 154   0.0000       4.401427       119.7689 
 155   0.0000       4.401486       119.7705 
 156   0.0000       4.401539       119.7720 
 157   0.0000       4.408108       119.9507 
 158   0.0000       4.420689       120.2931 
 159   0.0000       4.420726       120.2941 
 160   0.0000       4.420767       120.2952 
 161   0.0000       4.421743       120.3217 
 162   0.0000       4.421772       120.3225 
 163   0.0000       4.421795       120.3232 
 164   0.0000       4.425042       120.4115 
 165   0.0000       4.434497       120.6688 
 166   0.0000       4.461803       121.4118 
 167   0.0000       4.461820       121.4123 
 168   0.0000       4.461870       121.4137 
 169   0.0000       4.474064       121.7455 
 170   0.0000       4.474074       121.7457 
 171   0.0000       4.474156       121.7480 
 172   0.0000       4.485012       122.0434 
 173   0.0000       4.485023       122.0437 
 174   0.0000       4.609169       125.4219 
 175   0.0000       4.609221       125.4233 
 176   0.0000       4.609305       125.4256 
 177   0.0000       4.614762       125.5741 
 178   0.0000       4.614812       125.5754 
 179   0.0000       4.614860       125.5767 
 180   0.0000       5.183979       141.0632 
 181   0.0000       5.184112       141.0669 
 182   0.0000       5.184259       141.0708 
 183   0.0000       5.184306       141.0721 
 184   0.0000       5.184417       141.0752 
 185   0.0000       5.184583       141.0797 
 186   0.0000       5.184651       141.0815 
 187   0.0000       5.184830       141.0864 
 188   0.0000       5.184952       141.0897 
 189   0.0000       5.185224       141.0971 
 190   0.0000       5.185408       141.1021 
 191   0.0000       5.185552       141.1060 
 192   0.0000       5.185577       141.1067 
 193   0.0000       5.185842       141.1139 
 194   0.0000       5.186185       141.1233 
 195   0.0000       5.186326       141.1271 
 196   0.0000       5.186706       141.1374 
 197   0.0000       5.186712       141.1376 
 198   0.0000       5.186731       141.1381 
 199   0.0000       5.186997       141.1454 
 200   0.0000       5.187111       141.1485 
 201   0.0000       5.187190       141.1506 
 202   0.0000       5.187326       141.1543 
 203   0.0000       5.187425       141.1570 
 204   0.0000       5.187503       141.1591 
 205   0.0000       5.187545       141.1603 
 206   0.0000       5.187713       141.1648 
 207   0.0000       5.187785       141.1668 
 208   0.0000       5.188457       141.1851 
 209   0.0000       5.188525       141.1870 
 210   0.0000       5.188929       141.1979 
 211   0.0000       5.189532       141.2144 
 212   0.0000       5.189610       141.2165 
 213   0.0000       5.202833       141.5763 
 214   0.0000       5.202845       141.5766 
 215   0.0000       5.202928       141.5789 
 216   0.0000      32.939055       896.3173 
 217   0.0000      33.344646       907.3540 
 218   0.0000      33.344647       907.3540 
 219   0.0000      33.344668       907.3545 
 220   0.0000     110.368425      3003.2775 
 221   0.0000     110.497692      3006.7951 
 222   0.0000     110.497694      3006.7951 
 223   0.0000     110.497698      3006.7952 

                    ********************************
                    * MULLIKEN POPULATION ANALYSIS *
                    ********************************

-----------------------
MULLIKEN ATOMIC CHARGES
-----------------------
   0 Ag:    0.499985
   1 Ag:    0.500035
   2 Ag:    0.499984
   3 Ag:    0.499995
Sum of atomic charges:    2.0000000

--------------------------------
MULLIKEN REDUCED ORBITAL CHARGES
--------------------------------
  0 Ags       :     2.492580  s :     2.492580
      pz      :     2.085660  p :     6.116557
      px      :     2.015447
      py      :     2.015450
      dz2     :     1.989570  d :     9.889491
      dxz     :     1.958236
      dyz     :     1.958258
      dx2y2   :     1.991714
      dxy     :     1.991713
      f0      :     0.000211  f :     0.001373
      f+1     :     0.000310
      f-1     :     0.000310
      f+2     :     0.000227
      f-2     :     0.000227
      f+3     :     0.000038
      f-3     :     0.000049
      g0      :     0.000002  g :     0.000014
      g+1     :     0.000002
      g-1     :     0.000002
      g+2     :     0.000003
      g-2     :     0.000003
      g+3     :     0.000001
      g-3     :     0.000001
      g+4     :     0.000000
      g-4     :     0.000000
  1 Ags       :     2.492536  s :     2.492536
      pz      :     2.023243  p :     6.116550
      px      :     2.015444
      py      :     2.077863
      dz2     :     1.972329  d :     9.889493
      dxz     :     1.994921
      dyz     :     1.976218
      dx2y2   :     1.990988
      dxy     :     1.955037
      f0      :     0.000153  f :     0.001372
      f+1     :     0.000097
      f-1     :     0.000315
      f+2     :     0.000128
      f-2     :     0.000159
      f+3     :     0.000319
      f-3     :     0.000202
      g0      :     0.000001  g :     0.000014
      g+1     :     0.000000
      g-1     :     0.000002
      g+2     :     0.000002
      g-2     :     0.000002
      g+3     :     0.000001
      g-3     :     0.000001
      g+4     :     0.000002
      g-4     :     0.000002
  2 Ags       :     2.492573  s :     2.492573
      pz      :     2.023250  p :     6.116554
      px      :     2.062248
      py      :     2.031056
      dz2     :     1.972328  d :     9.889502
      dxz     :     1.980896
      dyz     :     1.990245
      dx2y2   :     1.964036
      dxy     :     1.981997
      f0      :     0.000153  f :     0.001373
      f+1     :     0.000261
      f-1     :     0.000151
      f+2     :     0.000152
      f-2     :     0.000136
      f+3     :     0.000319
      f-3     :     0.000202
      g0      :     0.000001  g :     0.000014
      g+1     :     0.000002
      g-1     :     0.000001
      g+2     :     0.000002
      g-2     :     0.000002
      g+3     :     0.000001
      g-3     :     0.000001
      g+4     :     0.000002
      g-4     :     0.000002
  3 Ags       :     2.492566  s :     2.492566
      pz      :     2.023250  p :     6.116551
      px      :     2.062246
      py      :     2.031055
      dz2     :     1.972328  d :     9.889502
      dxz     :     1.980896
      dyz     :     1.990245
      dx2y2   :     1.964036
      dxy     :     1.981997
      f0      :     0.000153  f :     0.001373
      f+1     :     0.000261
      f-1     :     0.000151
      f+2     :     0.000152
      f-2     :     0.000136
      f+3     :     0.000319
      f-3     :     0.000202
      g0      :     0.000001  g :     0.000014
      g+1     :     0.000002
      g-1     :     0.000001
      g+2     :     0.000002
      g-2     :     0.000002
      g+3     :     0.000001
      g-3     :     0.000001
      g+4     :     0.000002
      g-4     :     0.000002


                     *******************************
                     * LOEWDIN POPULATION ANALYSIS *
                     *******************************

----------------------
LOEWDIN ATOMIC CHARGES
----------------------
   0 Ag:    0.499987
   1 Ag:    0.500024
   2 Ag:    0.499994
   3 Ag:    0.499995

-------------------------------
LOEWDIN REDUCED ORBITAL CHARGES
-------------------------------
  0 Ags       :     2.365705  s :     2.365705
      pz      :     2.163383  p :     6.212700
      px      :     2.024660
      py      :     2.024658
      dz2     :     1.994717  d :     9.919566
      dxz     :     1.969163
      dyz     :     1.969180
      dx2y2   :     1.993253
      dxy     :     1.993252
      f0      :     0.000272  f :     0.002023
      f+1     :     0.000516
      f-1     :     0.000515
      f+2     :     0.000304
      f-2     :     0.000304
      f+3     :     0.000053
      f-3     :     0.000058
      g0      :     0.000002  g :     0.000019
      g+1     :     0.000004
      g-1     :     0.000004
      g+2     :     0.000003
      g-2     :     0.000003
      g+3     :     0.000001
      g-3     :     0.000001
      g+4     :     0.000000
      g-4     :     0.000000
  1 Ags       :     2.365667  s :     2.365667
      pz      :     2.040068  p :     6.212694
      px      :     2.024655
      py      :     2.147971
      dz2     :     1.981214  d :     9.919573
      dxz     :     1.994379
      dyz     :     1.982079
      dx2y2   :     1.993859
      dxy     :     1.968041
      f0      :     0.000190  f :     0.002023
      f+1     :     0.000138
      f-1     :     0.000519
      f+2     :     0.000187
      f-2     :     0.000202
      f+3     :     0.000533
      f-3     :     0.000254
      g0      :     0.000002  g :     0.000019
      g+1     :     0.000001
      g-1     :     0.000003
      g+2     :     0.000003
      g-2     :     0.000002
      g+3     :     0.000002
      g-3     :     0.000001
      g+4     :     0.000002
      g-4     :     0.000004
  2 Ags       :     2.365688  s :     2.365688
      pz      :     2.040071  p :     6.212695
      px      :     2.117138
      py      :     2.055486
      dz2     :     1.981214  d :     9.919581
      dxz     :     1.985154
      dyz     :     1.991304
      dx2y2   :     1.974507
      dxy     :     1.987402
      f0      :     0.000190  f :     0.002023
      f+1     :     0.000424
      f-1     :     0.000233
      f+2     :     0.000198
      f-2     :     0.000191
      f+3     :     0.000533
      f-3     :     0.000254
      g0      :     0.000002  g :     0.000019
      g+1     :     0.000002
      g-1     :     0.000001
      g+2     :     0.000002
      g-2     :     0.000003
      g+3     :     0.000002
      g-3     :     0.000001
      g+4     :     0.000004
      g-4     :     0.000003
  3 Ags       :     2.365688  s :     2.365688
      pz      :     2.040071  p :     6.212695
      px      :     2.117138
      py      :     2.055486
      dz2     :     1.981214  d :     9.919581
      dxz     :     1.985154
      dyz     :     1.991304
      dx2y2   :     1.974507
      dxy     :     1.987402
      f0      :     0.000190  f :     0.002023
      f+1     :     0.000424
      f-1     :     0.000233
      f+2     :     0.000198
      f-2     :     0.000191
      f+3     :     0.000533
      f-3     :     0.000254
      g0      :     0.000002  g :     0.000019
      g+1     :     0.000002
      g-1     :     0.000001
      g+2     :     0.000002
      g-2     :     0.000003
      g+3     :     0.000002
      g-3     :     0.000001
      g+4     :     0.000004
      g-4     :     0.000003


                      *****************************
                      * MAYER POPULATION ANALYSIS *
                      *****************************

  NA   - Mulliken gross atomic population
  ZA   - Total nuclear charge
  QA   - Mulliken gross atomic charge
  VA   - Mayer's total valence
  BVA  - Mayer's bonded valence
  FA   - Mayer's free valence

  ATOM       NA         ZA         QA         VA         BVA        FA
  0 Ag    18.5000    19.0000     0.5000     1.1209     1.1209     0.0000
  1 Ag    18.5000    19.0000     0.5000     1.1208     1.1208     0.0000
  2 Ag    18.5000    19.0000     0.5000     1.1208     1.1208     0.0000
  3 Ag    18.5000    19.0000     0.5000     1.1208     1.1208     0.0000

  Mayer bond orders larger than 0.100000
B(  0-Ag,  1-Ag) :   0.3736 B(  0-Ag,  2-Ag) :   0.3736 B(  0-Ag,  3-Ag) :   0.3736 
B(  1-Ag,  2-Ag) :   0.3736 B(  1-Ag,  3-Ag) :   0.3736 B(  2-Ag,  3-Ag) :   0.3736 


-------
TIMINGS
-------

Total SCF time: 0 days 0 hours 0 min 7 sec 

Total time                  ....       7.504 sec
Sum of individual times     ....       7.295 sec  ( 97.2%)

Fock matrix formation       ....       5.502 sec  ( 73.3%)
  XC integration            ....       0.475 sec  (  8.6% of F)
    Basis function eval.    ....       0.053 sec  ( 11.1% of XC)
    Density eval.           ....       0.095 sec  ( 19.9% of XC)
    XC-Functional eval.     ....       0.031 sec  (  6.4% of XC)
    XC-Potential eval.      ....       0.206 sec  ( 43.4% of XC)
Diagonalization             ....       0.068 sec  (  0.9%)
Density matrix formation    ....       0.010 sec  (  0.1%)
Population analysis         ....       0.008 sec  (  0.1%)
Initial guess               ....       1.275 sec  ( 17.0%)
Orbital Transformation      ....       0.000 sec  (  0.0%)
Orbital Orthonormalization  ....       0.000 sec  (  0.0%)
DIIS solution               ....       0.031 sec  (  0.4%)
Grid generation             ....       0.401 sec  (  5.3%)


-------------------------------------------------------------------------------
                          DFT DISPERSION CORRECTION                            
                                                                               
                              DFTD3 V3.1  Rev 1                                
                          USING Becke-Johnson damping                          
-------------------------------------------------------------------------------
The TPSSH functional is recognized
Active option DFTDOPT                   ...         4   

molecular C6(AA) [au] = 4297.808471 


            DFT-D V3
 parameters
 s6 scaling factor         :     1.0000 
 a1 scaling factor         :     0.4529 
 s8 scaling factor         :     2.2382 
 a2 scaling factor         :     4.6550 
 ad hoc parameters k1-k3   :    16.0000     1.3333    -4.0000 

 Edisp/kcal,au: -6.841662727972  -0.010902882396 
 E6   /kcal   :  -1.918153154 
 E8   /kcal   :  -4.923509574 
 % E8         :  71.963640568 

-------------------------   ----------------
Dispersion correction           -0.010902882
-------------------------   ----------------


-------------------------   --------------------
FINAL SINGLE POINT ENERGY      -587.199663671324
-------------------------   --------------------


                            ***************************************
                            *     ORCA property calculations      *
                            ***************************************

                                    ---------------------
                                    Active property flags
                                    ---------------------
   (+) Dipole Moment


------------------------------------------------------------------------------
                       ORCA ELECTRIC PROPERTIES CALCULATION
------------------------------------------------------------------------------

Dipole Moment Calculation                       ... on
Quadrupole Moment Calculation                   ... off
Polarizability Calculation                      ... off
GBWName                                         ... Ag04C2.gbw
Electron density file                           ... Ag04C2.scfp
The origin for moment calculation is the CENTER OF MASS  = ( 0.000000, -0.000000  0.000000)

-------------
DIPOLE MOMENT
-------------
                                X             Y             Z
Electronic contribution:     -0.00000      -0.00006      -0.00003
Nuclear contribution   :      0.00000      -0.00000       0.00000
                        -----------------------------------------
Total Dipole Moment    :     -0.00000      -0.00006      -0.00003
                        -----------------------------------------
Magnitude (a.u.)       :      0.00007
Magnitude (Debye)      :      0.00017



--------------------
Rotational spectrum 
--------------------
 
Rotational constants in cm-1:     0.019912     0.019911     0.019911 
Rotational constants in MHz :   596.940436   596.919431   596.905399 

 Dipole components along the rotational axes: 
x,y,z [a.u.] :    -0.000056    -0.000000    -0.000040 
x,y,z [Debye]:    -0.000142    -0.000000    -0.000101 

 

Timings for individual modules:

Sum of individual times         ...        9.249 sec (=   0.154 min)
GTO integral calculation        ...        1.390 sec (=   0.023 min)  15.0 %
SCF iterations                  ...        7.859 sec (=   0.131 min)  85.0 %
                             ****ORCA TERMINATED NORMALLY****
TOTAL RUN TIME: 0 days 0 hours 0 minutes 9 seconds 742 msec
