
                                 *****************
                                 * O   R   C   A *
                                 *****************

           --- An Ab Initio, DFT and Semiempirical electronic structure package ---

                  #######################################################
                  #                        -***-                        #
                  #          Department of theory and spectroscopy      #
                  #               Directorship: Frank Neese             #
                  #        Max Planck Institute fuer Kohlenforschung    #
                  #                Kaiser Wilhelm Platz 1               #
                  #                 D-45470 Muelheim/Ruhr               #
                  #                      Germany                        #
                  #                                                     #
                  #                  All rights reserved                #
                  #                        -***-                        #
                  #######################################################


                         Program Version 4.2.0 -  RELEASE  -


 With contributions from (in alphabetic order):
   Daniel Aravena         : Magnetic Suceptibility
   Michael Atanasov       : Ab Initio Ligand Field Theory (pilot matlab implementation)
   Alexander A. Auer      : GIAO ZORA, VPT2
   Ute Becker             : Parallelization
   Giovanni Bistoni       : ED, misc. LED, open-shell LED, HFLED
   Martin Brehm           : Molecular dynamics
   Dmytro Bykov           : SCF Hessian
   Vijay G. Chilkuri      : MRCI spin determinant printing, contributions to CSF-ICE
   Dipayan Datta          : RHF DLPNO-CCSD density
   Achintya Kumar Dutta   : EOM-CC, STEOM-CC
   Dmitry Ganyushin       : Spin-Orbit,Spin-Spin,Magnetic field MRCI
   Miquel Garcia          : C-PCM Hessian, Gaussian charge scheme
   Yang Guo               : DLPNO-NEVPT2, CIM, IAO-localization
   Andreas Hansen         : Spin unrestricted coupled pair/coupled cluster methods
   Benjamin Helmich-Paris : CASSCF linear response (MC-RPA)
   Lee Huntington         : MR-EOM, pCC
   Robert Izsak           : Overlap fitted RIJCOSX, COSX-SCS-MP3, EOM
   Christian Kollmar      : KDIIS, OOCD, Brueckner-CCSD(T), CCSD density
   Simone Kossmann        : Meta GGA functionals, TD-DFT gradient, OOMP2, MP2 Hessian
   Martin Krupicka        : AUTO-CI
   Lucas Lang             : DCDCAS
   Dagmar Lenk            : GEPOL surface, SMD
   Dimitrios Liakos       : Extrapolation schemes; Compound Job, initial MDCI parallelization
   Dimitrios Manganas     : Further ROCIS development; embedding schemes
   Dimitrios Pantazis     : SARC Basis sets
   Taras Petrenko         : DFT Hessian,TD-DFT gradient, ASA, ECA, R-Raman, ABS, FL, XAS/XES, NRVS
   Peter Pinski           : DLPNO-MP2, DLPNO-MP2 Gradient
   Christoph Reimann      : Effective Core Potentials
   Marius Retegan         : Local ZFS, SOC
   Christoph Riplinger    : Optimizer, TS searches, QM/MM, DLPNO-CCSD(T), (RO)-DLPNO pert. Triples
   Tobias Risthaus        : Range-separated hybrids, TD-DFT gradient, RPA, STAB
   Michael Roemelt        : Original ROCIS implementation
   Masaaki Saitow         : Open-shell DLPNO-CCSD energy and density
   Barbara Sandhoefer     : DKH picture change effects
   Avijit Sen             : IP-ROCIS
   Kantharuban Sivalingam : CASSCF convergence, NEVPT2, FIC-MRCI
   Bernardo de Souza      : ESD, SOC TD-DFT
   Georgi Stoychev        : AutoAux, RI-MP2 NMR
   Willem Van den Heuvel  : Paramagnetic NMR
   Boris Wezisla          : Elementary symmetry handling
   Frank Wennmohs         : Technical directorship


 We gratefully acknowledge several colleagues who have allowed us to
 interface, adapt or use parts of their codes:
   Stefan Grimme, W. Hujo, H. Kruse,             : VdW corrections, initial TS optimization,
                  C. Bannwarth                     DFT functionals, gCP, sTDA/sTD-DF
   Ed Valeev, F. Pavosevic, A. Kumar             : LibInt (2-el integral package), F12 methods
   Garnet Chan, S. Sharma, J. Yang, R. Olivares  : DMRG
   Ulf Ekstrom                                   : XCFun DFT Library
   Mihaly Kallay                                 : mrcc  (arbitrary order and MRCC methods)
   Andreas Klamt, Michael Diedenhofen            : otool_cosmo (COSMO solvation model)
   Jiri Pittner, Ondrej Demel                    : Mk-CCSD
   Frank Weinhold                                : gennbo (NPA and NBO analysis)
   Christopher J. Cramer and Donald G. Truhlar   : smd solvation model
   Lars Goerigk                                  : TD-DFT with DH, B97 family of functionals
   V. Asgeirsson, H. Jonsson                     : NEB implementation
   FAccTs GmbH                                   : IRC, NEB, NEB-TS, Multilevel, MM, QM/MM, CI optimization
   S Lehtola, MJT Oliveira, MAL Marques          : LibXC Library


 Your calculation uses the libint2 library for the computation of 2-el integrals
 For citations please refer to: http://libint.valeyev.net

 Your ORCA version has been built with support for libXC version: 4.2.3
 For citations please refer to: https://tddft.org/programs/libxc/

 This ORCA versions uses:
   CBLAS   interface :  Fast vector & matrix operations
   LAPACKE interface :  Fast linear algebra routines
   SCALAPACK package :  Parallel linear algebra routines


Your calculation utilizes the atom-pairwise dispersion correction
with the Becke-Johnson damping scheme (D3BJ)
Cite in your paper:
S.Grimme, S.Ehrlich, L.Goerigk, J Comput Chem, (2011), 32, 1456–1465 
S.Grimme, J.Antony, S.Ehrlich and H.Krieg, J.Chem.Phys., 132, (2010), 154104 
   

----- Orbital basis set information -----
Your calculation utilizes the basis: def2-TZVPPD
   F. Weigend and R. Ahlrichs, Phys. Chem. Chem. Phys. 7, 3297 (2005).
   D. Rappoport and F. Furche, J. Chem. Phys. 133 134105 (2010).

----- AuxJK basis set information -----
Your calculation utilizes the auxiliary basis: def2/JK
   H-Ba, Hf-Rn: F. Weigend, J. Comput. Chem. 29, 167 (2008).

cite the ECPs for Au [Def2-ECP] as follows:
Ce-Yb(ecp-28): M. Dolg, H. Stoll, H.Preuss, J. Chem. Phys., 1989, 90, 1730-1734.
Y-Cd(ecp-28), Hf-Hg(ecp-46): D. Andrae,U. Haeussermann, M. Dolg, H. Stoll, H. Preuss, Theor. Chim. Acta, 1990, 77, 123-141.
In-Sb(ecp-28), Tl-Bi(ecp-46): B. Metz, H. Stoll, M. Dolg, J. Chem. Phys., 2000, 113, 2563-2569.
Te-Xe(ecp-28), Po-Rn(ecp-46): K. A. Peterson, D. Figgen, E. Goll, H. Stoll, M. Dolg, J. Chem. Phys., 2003, 119, 11113-11123.
Rb(ecp-28), Cs(ecp-46): T. Leininger, A. Nicklass, W. Kuechle, H. Stoll, M. Dolg, A. Bergner, Chem. Phys. Lett., 1996, 255, 274-280.
Sr(ecp-28), Ba(ecp-46): M. Kaupp, P. V. Schleyer, H. Stoll and H. Preuss, J. Chem. Phys., 1991, 94, 1360-1366.
La(ecp-46): M. Dolg, H. Stoll, A. Savin, H. Preuss, Theor. Chim. Acta, 1989, 75, 173-194.
Lu(ecp-28): X. Cao, M. Dolg, J. Chem. Phys., 2001, 115, 7348-7355.

ECP parameters for Au [Def2-ECP] have been obtained from:
TURBOMOLE (7.0.2)

================================================================================
                                        WARNINGS
                       Please study these warnings very carefully!
================================================================================


WARNING: your system is open-shell and RHF/RKS was chosen
  ===> : WILL SWITCH to UHF/UKS


INFO   : the flag for use of LIBINT has been found!

================================================================================
                                       INPUT FILE
================================================================================
NAME = Au03N0_D3H.in
|  1> #
|  2> # Au03N0_D3H TPSSh-D3BJ/Def2-TZVPPD
|  3> #
|  4> ! tpssh d3bj def2-tzvppd def2/jk grid4 nofinalgrid
|  5> 
|  6> *xyz 0 2
|  7> Au       0.000000    1.515176   -0.000000 
|  8> Au       1.312181   -0.757588    0.000000 
|  9> Au      -1.312181   -0.757588   -0.000000 
| 10> *
| 11> 
| 12> %maxcore 5000
| 13> 
| 14> %pal
| 15> nprocs = 24
| 16> end
| 17> 
| 18> 
| 19>                          ****END OF INPUT****
================================================================================

                       ****************************
                       * Single Point Calculation *
                       ****************************

---------------------------------
CARTESIAN COORDINATES (ANGSTROEM)
---------------------------------
  Au     0.000000    1.515176   -0.000000
  Au     1.312181   -0.757588    0.000000
  Au    -1.312181   -0.757588   -0.000000

----------------------------
CARTESIAN COORDINATES (A.U.)
----------------------------
  NO LB      ZA    FRAG     MASS         X           Y           Z
   0 Au   19.0000*   0   196.966    0.000000    2.863268   -0.000000
   1 Au   19.0000*   0   196.966    2.479663   -1.431634    0.000000
   2 Au   19.0000*   0   196.966   -2.479663   -1.431634   -0.000000
* core charge reduced due to ECP

--------------------------------
INTERNAL COORDINATES (ANGSTROEM)
--------------------------------
 Au     0   0   0     0.000000000000     0.00000000     0.00000000
 Au     1   0   0     2.624361860807     0.00000000     0.00000000
 Au     1   2   0     2.624361860807    60.00000351     0.00000000

---------------------------
INTERNAL COORDINATES (A.U.)
---------------------------
 Au     0   0   0     0.000000000000     0.00000000     0.00000000
 Au     1   0   0     4.959325193233     0.00000000     0.00000000
 Au     1   2   0     4.959325193233    60.00000351     0.00000000

---------------------
BASIS SET INFORMATION
---------------------
There are 1 groups of distinct atoms

 Group   1 Type Au  : 8s8p6d2f1g contracted to 6s5p3d2f1g pattern {311111/41111/411/11/1}

Atom   0Au   basis set group =>   1
Atom   1Au   basis set group =>   1
Atom   2Au   basis set group =>   1
----------------------------------
AUXILIARY/JK BASIS SET INFORMATION
----------------------------------
There are 1 groups of distinct atoms

 Group   1 Type Au  : 13s12p11d9f5g3h2i contracted to 13s11p10d8f4g3h2i pattern {1111111111111/21111111111/2111111111/21111111/2111/111/11}

Atom   0Au   basis set group =>   1
Atom   1Au   basis set group =>   1
Atom   2Au   basis set group =>   1
-------------------------
ECP PARAMETER INFORMATION
-------------------------

 Group 1, Type Au ECP Def2-ECP (replacing 60 core electrons, lmax=3)

Atom   0Au   ECP group =>   1
Atom   1Au   ECP group =>   1
Atom   2Au   ECP group =>   1



           ************************************************************
           *        Program running with 24 parallel MPI-processes    *
           *              working on a common directory               *
           ************************************************************
------------------------------------------------------------------------------
                           ORCA GTO INTEGRAL CALCULATION
------------------------------------------------------------------------------

                         BASIS SET STATISTICS AND STARTUP INFO

 # of primitive gaussian shells          ...   75
 # of primitive gaussian functions       ...  255
 # of contracted shells                  ...   51
 # of contracted basis functions         ...  177
 Highest angular momentum                ...    4
 Maximum contraction depth               ...    4
 Integral package used                   ... LIBINT
 Integral threshhold            Thresh   ...  1.000e-10
 Primitive cut-off              TCut     ...  1.000e-11


------------------------------ INTEGRAL EVALUATION ----------------------------


 * One electron integrals 

   ECP integrals                         ... done
 Pre-screening matrix                    ... done
 Shell pair data                         ... done (   0.000 sec)



           ************************************************************
           *        Program running with 24 parallel MPI-processes    *
           *              working on a common directory               *
           ************************************************************
-------------------------------------------------------------------------------
                                 ORCA SCF
-------------------------------------------------------------------------------

------------
SCF SETTINGS
------------
Hamiltonian:
 Density Functional     Method          .... DFT(GTOs)
 Exchange Functional    Exchange        .... TPSS
 Correlation Functional Correlation     .... TPSS
 LDA part of GGA corr.  LDAOpt          .... PW91-LDA
 Gradients option       PostSCFGGA      .... off
 Hybrid DFT is turned on
   Fraction HF Exchange ScalHFX         ....  0.100000
   Scaling of DF-GGA-X  ScalDFX         ....  0.900000
   Scaling of DF-GGA-C  ScalDFC         ....  1.000000
   Scaling of DF-LDA-C  ScalLDAC        ....  1.000000
   Perturbative correction              ....  0.000000
   Density functional embedding theory  .... OFF
   NL short-range parameter             ....  5.200000


General Settings:
 Integral files         IntName         .... Au03N0_D3H
 Hartree-Fock type      HFTyp           .... UHF
 Total Charge           Charge          ....    0
 Multiplicity           Mult            ....    2
 Number of Electrons    NEL             ....   57
 Basis Dimension        Dim             ....  177
 Nuclear Repulsion      ENuc            ....    218.3764803991 Eh

Convergence Acceleration:
 DIIS                   CNVDIIS         .... on
   Start iteration      DIISMaxIt       ....    12
   Startup error        DIISStart       ....  0.200000
   # of expansion vecs  DIISMaxEq       ....     5
   Bias factor          DIISBfac        ....   1.050
   Max. coefficient     DIISMaxC        ....  10.000
 Newton-Raphson         CNVNR           .... off
 SOSCF                  CNVSOSCF        .... off
 Level Shifting         CNVShift        .... on
   Level shift para.    LevelShift      ....    0.2500
   Turn off err/grad.   ShiftErr        ....    0.0010
 Zerner damping         CNVZerner       .... off
 Static damping         CNVDamp         .... on
   Fraction old density DampFac         ....    0.7000
   Max. Damping (<1)    DampMax         ....    0.9800
   Min. Damping (>=0)   DampMin         ....    0.0000
   Turn off err/grad.   DampErr         ....    0.1000
 Fernandez-Rico         CNVRico         .... off

SCF Procedure:
 Maximum # iterations   MaxIter         ....   125
 SCF integral mode      SCFMode         .... Direct
   Integral package                     .... LIBINT
 Reset frequency        DirectResetFreq ....    20
 Integral Threshold     Thresh          ....  1.000e-10 Eh
 Primitive CutOff       TCut            ....  1.000e-11 Eh

Convergence Tolerance:
 Convergence Check Mode ConvCheckMode   .... Total+1el-Energy
 Convergence forced     ConvForced      .... 0
 Energy Change          TolE            ....  1.000e-06 Eh
 1-El. energy change                    ....  1.000e-03 Eh
 DIIS Error             TolErr          ....  1.000e-06


Diagonalization of the overlap matrix:
Smallest eigenvalue                        ... 1.685e-03
Time for diagonalization                   ...    0.008 sec
Threshold for overlap eigenvalues          ... 1.000e-08
Number of eigenvalues below threshold      ... 0
Time for construction of square roots      ...    0.003 sec
Total time needed                          ...    0.011 sec

-------------------
DFT GRID GENERATION
-------------------

General Integration Accuracy     IntAcc      ...  4.670
Radial Grid Type                 RadialGrid  ... Gauss-Chebyshev
Angular Grid (max. acc.)         AngularGrid ... Lebedev-302
Angular grid pruning method      GridPruning ... 3 (G Style)
Weight generation scheme         WeightScheme... Becke
Basis function cutoff            BFCut       ...    1.0000e-10
Integration weight cutoff        WCut        ...    1.0000e-14
Grids for H and He will be reduced by one unit

# of grid points (after initial pruning)     ...  34956 (   0.0 sec)
# of grid points (after weights+screening)   ...  34814 (   0.0 sec)
nearest neighbour list constructed           ...    0.0 sec
Grid point re-assignment to atoms done       ...    0.0 sec
Grid point division into batches done        ...    0.3 sec
Reduced shell lists constructed in    0.3 sec

Total number of grid points                  ...    34814
Total number of batches                      ...      545
Average number of points per batch           ...       63
Average number of grid points per atom       ...    11605
Average number of shells per batch           ...     4.38 ( 8.58%)
Average number of basis functions per batch  ...    11.12 ( 6.29%)
Average number of large shells per batch     ...     2.54 (58.10%)
Average number of large basis fcns per batch ...     6.04 (54.31%)
Maximum spatial batch extension              ...  27.54, 22.91, 24.85 au
Average spatial batch extension              ...   0.73,  0.63,  0.66 au

Time for grid setup =    0.364 sec

------------------------------
INITIAL GUESS: MODEL POTENTIAL
------------------------------
Loading Hartree-Fock densities                     ... done
  calling /sw/apps/orca/orca_4_2_0_linux_x86-64_openmpi314/orca Au03N0_D3H_atom79.inp > Au03N0_D3H_atom79.out in order to generate an atomic fitting density for atom 0 (Au with ECP) on-the-fly... 
    atom 0 (Au), assumed electronic state with S=2: 1s2 2s2 2p6 3s2 3p6 4s2 3d10 4p6 5s2 4d10 5p6 6s1 4f14 5d10           ... done
Calculating cut-offs                               ... done
Setting up the integral package                    ... done
Initializing the effective Hamiltonian             ... done
Starting the Coulomb interaction                   ... done (   0.0 sec)
Reading the grid                                   ... done
Mapping shells                                     ... done
Starting the XC term evaluation                    ... done (   0.0 sec)
  promolecular density results
     # of electrons  =    237.007571856
     EX              =  -1097.415459138
     EC              =    -14.480828760
     EX+EC           =  -1111.896287898
Transforming the Hamiltonian                       ... done (   0.0 sec)
Diagonalizing the Hamiltonian                      ... done (   0.0 sec)
Back transforming the eigenvectors                 ... done (   0.0 sec)
Now organizing SCF variables                       ... done
                      ------------------
                      INITIAL GUESS DONE (   1.4 sec)
                      ------------------
--------------
SCF ITERATIONS
--------------
ITER       Energy         Delta-E        Max-DP      RMS-DP      [F,P]     Damp
               ***  Starting incremental Fock matrix formation  ***
  0   -406.7465211131   0.000000000000 0.15293422  0.00196072  0.5832259 0.7000
  1   -406.9076269091  -0.161105795944 0.09849545  0.00128370  0.3995170 0.7000
  2   -406.9664944017  -0.058867492595 0.05679924  0.00073242  0.2737697 0.7000
                               ***Turning on DIIS***
  3   -407.0069651184  -0.040470716723 0.03582035  0.00046610  0.1897531 0.7000
  4   -407.0372595278  -0.030294409366 0.02707093  0.00033291  0.1325267 0.7000
  5   -407.0585579422  -0.021298414448 0.06480404  0.00081414  0.0929797 0.0000
  6   -407.1082418262  -0.049683883951 0.00392531  0.00004643  0.0012274 0.0000
  7   -407.1082964258  -0.000054599646 0.00387828  0.00007831  0.0007886 0.0000
  8   -407.1083568805  -0.000060454746 0.00156417  0.00003331  0.0004801 0.0000
  9   -407.1083676090  -0.000010728471 0.00084660  0.00001523  0.0009159 0.0000
 10   -407.1083721080  -0.000004499007 0.00048453  0.00001045  0.0002673 0.0000
 11   -407.1083741883  -0.000002080255 0.00035644  0.00000825  0.0000617 0.0000
 12   -407.1083753128  -0.000001124521 0.00030052  0.00000693  0.0000377 0.0000
                 **** Energy Check signals convergence ****

               *****************************************************
               *                     SUCCESS                       *
               *           SCF CONVERGED AFTER  13 CYCLES          *
               *****************************************************


----------------
TOTAL SCF ENERGY
----------------

Total Energy       :         -407.10837592 Eh          -11077.98210 eV

Components:
Nuclear Repulsion  :          218.37648040 Eh            5942.32613 eV
Electronic Energy  :         -625.48485632 Eh          -17020.30824 eV
One Electron Energy:        -1151.93059921 Eh          -31345.62519 eV
Two Electron Energy:          526.44574289 Eh           14325.31695 eV

Virial components:
Potential Energy   :         -544.66464224 Eh          -14821.07840 eV
Kinetic Energy     :          137.55626632 Eh            3743.09630 eV
Virial Ratio       :            3.95957710


DFT components:
N(Alpha)           :       28.999992896839 electrons
N(Beta)            :       27.999991924009 electrons
N(Total)           :       56.999984820848 electrons
E(X)               :      -32.377359319276 Eh       
E(C)               :       -2.437757413766 Eh       
E(XC)              :      -34.815116733042 Eh       
DFET-embed. en.    :        0.000000000000 Eh       

---------------
SCF CONVERGENCE
---------------

  Last Energy change         ...   -6.1005e-07  Tolerance :   1.0000e-06
  Last MAX-Density change    ...    2.9168e-04  Tolerance :   1.0000e-05
  Last RMS-Density change    ...    6.5400e-06  Tolerance :   1.0000e-06
  Last DIIS Error            ...    1.9975e-05  Tolerance :   1.0000e-06

             **** THE GBW FILE WAS UPDATED (Au03N0_D3H.gbw) ****
             **** DENSITY FILE WAS UPDATED (Au03N0_D3H.scfp) ****
             **** ENERGY FILE WAS UPDATED (Au03N0_D3H.en.tmp) ****
----------------------
UHF SPIN CONTAMINATION
----------------------

Warning: in a DFT calculation there is little theoretical justification to 
         calculate <S**2> as in Hartree-Fock theory. We will do it anyways
         but you should keep in mind that the values have only limited relevance

Expectation value of <S**2>     :     0.771563
Ideal value S*(S+1) for S=0.5   :     0.750000
Deviation                       :     0.021563

             **** THE GBW FILE WAS UPDATED (Au03N0_D3H.gbw) ****
             **** DENSITY FILE WAS UPDATED (Au03N0_D3H.scfp) ****
----------------
ORBITAL ENERGIES
----------------
                 SPIN UP ORBITALS
  NO   OCC          E(Eh)            E(eV) 
   0   1.0000      -4.099445      -111.5516 
   1   1.0000      -4.099109      -111.5424 
   2   1.0000      -4.087274      -111.2204 
   3   1.0000      -2.299545       -62.5738 
   4   1.0000      -2.293450       -62.4080 
   5   1.0000      -2.290711       -62.3334 
   6   1.0000      -2.288452       -62.2719 
   7   1.0000      -2.286178       -62.2101 
   8   1.0000      -2.285562       -62.1933 
   9   1.0000      -2.281152       -62.0733 
  10   1.0000      -2.277403       -61.9713 
  11   1.0000      -2.270700       -61.7889 
  12   1.0000      -0.385328       -10.4853 
  13   1.0000      -0.346640        -9.4326 
  14   1.0000      -0.341611        -9.2957 
  15   1.0000      -0.334820        -9.1109 
  16   1.0000      -0.316501        -8.6124 
  17   1.0000      -0.307148        -8.3579 
  18   1.0000      -0.302551        -8.2328 
  19   1.0000      -0.281311        -7.6549 
  20   1.0000      -0.279495        -7.6055 
  21   1.0000      -0.275256        -7.4901 
  22   1.0000      -0.272821        -7.4238 
  23   1.0000      -0.271002        -7.3743 
  24   1.0000      -0.264553        -7.1988 
  25   1.0000      -0.264273        -7.1912 
  26   1.0000      -0.263435        -7.1684 
  27   1.0000      -0.244561        -6.6549 
  28   1.0000      -0.171394        -4.6639 
  29   0.0000      -0.153089        -4.1658 
  30   0.0000      -0.049308        -1.3417 
  31   0.0000      -0.032468        -0.8835 
  32   0.0000      -0.013613        -0.3704 
  33   0.0000      -0.012763        -0.3473 
  34   0.0000       0.031748         0.8639 
  35   0.0000       0.034361         0.9350 
  36   0.0000       0.059265         1.6127 
  37   0.0000       0.060852         1.6559 
  38   0.0000       0.090255         2.4560 
  39   0.0000       0.146508         3.9867 
  40   0.0000       0.156093         4.2475 
  41   0.0000       0.157299         4.2803 
  42   0.0000       0.171793         4.6747 
  43   0.0000       0.171944         4.6788 
  44   0.0000       0.213629         5.8132 
  45   0.0000       0.216112         5.8807 
  46   0.0000       0.227355         6.1866 
  47   0.0000       0.230500         6.2722 
  48   0.0000       0.282373         7.6838 
  49   0.0000       0.283959         7.7269 
  50   0.0000       0.304835         8.2950 
  51   0.0000       0.308918         8.4061 
  52   0.0000       0.309286         8.4161 
  53   0.0000       0.309408         8.4194 
  54   0.0000       0.333304         9.0697 
  55   0.0000       0.377968        10.2850 
  56   0.0000       0.379294        10.3211 
  57   0.0000       0.409347        11.1389 
  58   0.0000       0.446452        12.1486 
  59   0.0000       0.448635        12.2080 
  60   0.0000       0.455862        12.4046 
  61   0.0000       0.457276        12.4431 
  62   0.0000       0.468624        12.7519 
  63   0.0000       0.543139        14.7796 
  64   0.0000       0.545023        14.8308 
  65   0.0000       0.556987        15.1564 
  66   0.0000       0.799688        21.7606 
  67   0.0000       0.892712        24.2919 
  68   0.0000       0.895268        24.3615 
  69   0.0000       0.898410        24.4470 
  70   0.0000       0.914419        24.8826 
  71   0.0000       0.984052        26.7774 
  72   0.0000       0.987735        26.8776 
  73   0.0000       1.049044        28.5459 
  74   0.0000       1.057553        28.7775 
  75   0.0000       1.058170        28.7943 
  76   0.0000       1.059653        28.8346 
  77   0.0000       1.060011        28.8444 
  78   0.0000       1.069467        29.1017 
  79   0.0000       1.095698        29.8155 
  80   0.0000       1.097986        29.8777 
  81   0.0000       1.126888        30.6642 
  82   0.0000       1.142516        31.0894 
  83   0.0000       1.151893        31.3446 
  84   0.0000       1.194751        32.5108 
  85   0.0000       1.211260        32.9601 
  86   0.0000       1.213234        33.0138 
  87   0.0000       1.303351        35.4660 
  88   0.0000       1.314638        35.7731 
  89   0.0000       1.318419        35.8760 
  90   0.0000       1.322198        35.9788 
  91   0.0000       1.336916        36.3793 
  92   0.0000       1.342567        36.5331 
  93   0.0000       1.360243        37.0141 
  94   0.0000       1.363436        37.1010 
  95   0.0000       1.422292        38.7025 
  96   0.0000       1.432232        38.9730 
  97   0.0000       1.436425        39.0871 
  98   0.0000       1.443985        39.2928 
  99   0.0000       1.448092        39.4046 
 100   0.0000       1.474758        40.1302 
 101   0.0000       1.477184        40.1962 
 102   0.0000       1.494805        40.6757 
 103   0.0000       1.561993        42.5040 
 104   0.0000       1.571412        42.7603 
 105   0.0000       1.575570        42.8734 
 106   0.0000       1.624064        44.1930 
 107   0.0000       1.630521        44.3687 
 108   0.0000       1.829298        49.7777 
 109   0.0000       1.834091        49.9082 
 110   0.0000       2.039595        55.5002 
 111   0.0000       2.088441        56.8294 
 112   0.0000       2.613001        71.1034 
 113   0.0000       2.619496        71.2801 
 114   0.0000       3.412667        92.8634 
 115   0.0000       3.447387        93.8082 
 116   0.0000       3.466802        94.3365 
 117   0.0000       3.471280        94.4583 
 118   0.0000       3.511933        95.5646 
 119   0.0000       3.526290        95.9552 
 120   0.0000       3.533594        96.1540 
 121   0.0000       3.585682        97.5714 
 122   0.0000       3.594676        97.8161 
 123   0.0000       3.608936        98.2041 
 124   0.0000       3.616931        98.4217 
 125   0.0000       3.622673        98.5779 
 126   0.0000       3.625777        98.6624 
 127   0.0000       3.741001       101.7978 
 128   0.0000       3.763604       102.4129 
 129   0.0000       3.765981       102.4776 
 130   0.0000       3.767867       102.5289 
 131   0.0000       3.771473       102.6270 
 132   0.0000       3.857316       104.9629 
 133   0.0000       3.859708       105.0280 
 134   0.0000       3.925396       106.8154 
 135   0.0000       4.091530       111.3362 
 136   0.0000       4.091643       111.3393 
 137   0.0000       4.095071       111.4325 
 138   0.0000       4.095415       111.4419 
 139   0.0000       4.098177       111.5171 
 140   0.0000       4.099345       111.5488 
 141   0.0000       4.103248       111.6551 
 142   0.0000       4.105649       111.7204 
 143   0.0000       4.107429       111.7688 
 144   0.0000       4.107655       111.7750 
 145   0.0000       4.108302       111.7926 
 146   0.0000       4.109147       111.8156 
 147   0.0000       4.109236       111.8180 
 148   0.0000       4.109655       111.8294 
 149   0.0000       4.110484       111.8520 
 150   0.0000       4.117168       112.0338 
 151   0.0000       4.120598       112.1272 
 152   0.0000       4.124688       112.2385 
 153   0.0000       4.124762       112.2405 
 154   0.0000       4.147350       112.8551 
 155   0.0000       4.158259       113.1520 
 156   0.0000       4.160809       113.2214 
 157   0.0000       4.162697       113.2727 
 158   0.0000       4.166443       113.3747 
 159   0.0000       4.289725       116.7293 
 160   0.0000       4.294969       116.8720 
 161   0.0000       4.405992       119.8931 
 162   0.0000      27.196146       740.0448 
 163   0.0000      27.369678       744.7668 
 164   0.0000      27.376681       744.9574 
 165   0.0000      27.478154       747.7186 
 166   0.0000      27.571762       750.2658 
 167   0.0000      27.581756       750.5377 
 168   0.0000      29.058331       790.7174 
 169   0.0000      29.700308       808.1865 
 170   0.0000      29.707844       808.3915 
 171   0.0000      43.919860      1195.1201 
 172   0.0000      44.437344      1209.2016 
 173   0.0000      44.445472      1209.4228 
 174   0.0000     205.078657      5580.4740 
 175   0.0000     205.301294      5586.5322 
 176   0.0000     205.309811      5586.7640 

                 SPIN DOWN ORBITALS
  NO   OCC          E(Eh)            E(eV) 
   0   1.0000      -4.098601      -111.5286 
   1   1.0000      -4.098267      -111.5195 
   2   1.0000      -4.084746      -111.1516 
   3   1.0000      -2.298534       -62.5463 
   4   1.0000      -2.292218       -62.3744 
   5   1.0000      -2.289369       -62.2969 
   6   1.0000      -2.287497       -62.2460 
   7   1.0000      -2.285709       -62.1973 
   8   1.0000      -2.285097       -62.1806 
   9   1.0000      -2.278009       -61.9878 
  10   1.0000      -2.274885       -61.9028 
  11   1.0000      -2.268835       -61.7381 
  12   1.0000      -0.380138       -10.3441 
  13   1.0000      -0.344143        -9.3646 
  14   1.0000      -0.333153        -9.0656 
  15   1.0000      -0.332804        -9.0561 
  16   1.0000      -0.311957        -8.4888 
  17   1.0000      -0.305302        -8.3077 
  18   1.0000      -0.299068        -8.1380 
  19   1.0000      -0.278101        -7.5675 
  20   1.0000      -0.277559        -7.5528 
  21   1.0000      -0.273622        -7.4456 
  22   1.0000      -0.272908        -7.4262 
  23   1.0000      -0.264754        -7.2043 
  24   1.0000      -0.259912        -7.0726 
  25   1.0000      -0.256581        -6.9819 
  26   1.0000      -0.256536        -6.9807 
  27   1.0000      -0.236417        -6.4332 
  28   0.0000      -0.145791        -3.9672 
  29   0.0000      -0.126280        -3.4362 
  30   0.0000      -0.043653        -1.1879 
  31   0.0000      -0.021694        -0.5903 
  32   0.0000      -0.002108        -0.0574 
  33   0.0000       0.001342         0.0365 
  34   0.0000       0.034694         0.9441 
  35   0.0000       0.044748         1.2176 
  36   0.0000       0.065301         1.7769 
  37   0.0000       0.075760         2.0615 
  38   0.0000       0.099484         2.7071 
  39   0.0000       0.157511         4.2861 
  40   0.0000       0.160869         4.3775 
  41   0.0000       0.161140         4.3849 
  42   0.0000       0.182459         4.9650 
  43   0.0000       0.184679         5.0254 
  44   0.0000       0.218277         5.9396 
  45   0.0000       0.229487         6.2447 
  46   0.0000       0.230441         6.2706 
  47   0.0000       0.237841         6.4720 
  48   0.0000       0.288279         7.8445 
  49   0.0000       0.296467         8.0673 
  50   0.0000       0.308640         8.3985 
  51   0.0000       0.314459         8.5569 
  52   0.0000       0.316180         8.6037 
  53   0.0000       0.325425         8.8553 
  54   0.0000       0.339198         9.2301 
  55   0.0000       0.384751        10.4696 
  56   0.0000       0.388585        10.5739 
  57   0.0000       0.415601        11.3091 
  58   0.0000       0.450319        12.2538 
  59   0.0000       0.459533        12.5045 
  60   0.0000       0.463618        12.6157 
  61   0.0000       0.467250        12.7145 
  62   0.0000       0.476845        12.9756 
  63   0.0000       0.546663        14.8755 
  64   0.0000       0.554263        15.0823 
  65   0.0000       0.566867        15.4252 
  66   0.0000       0.804884        21.9020 
  67   0.0000       0.894950        24.3528 
  68   0.0000       0.902892        24.5689 
  69   0.0000       0.906289        24.6614 
  70   0.0000       0.918692        24.9989 
  71   0.0000       0.987082        26.8599 
  72   0.0000       0.994300        27.0563 
  73   0.0000       1.052071        28.6283 
  74   0.0000       1.059175        28.8216 
  75   0.0000       1.062852        28.9217 
  76   0.0000       1.063423        28.9372 
  77   0.0000       1.065679        28.9986 
  78   0.0000       1.076468        29.2922 
  79   0.0000       1.102070        29.9888 
  80   0.0000       1.103504        30.0279 
  81   0.0000       1.132961        30.8294 
  82   0.0000       1.144938        31.1553 
  83   0.0000       1.159114        31.5411 
  84   0.0000       1.200811        32.6757 
  85   0.0000       1.214382        33.0450 
  86   0.0000       1.219815        33.1929 
  87   0.0000       1.307888        35.5894 
  88   0.0000       1.318472        35.8774 
  89   0.0000       1.325773        36.0761 
  90   0.0000       1.332963        36.2718 
  91   0.0000       1.340819        36.4855 
  92   0.0000       1.350906        36.7600 
  93   0.0000       1.363399        37.1000 
  94   0.0000       1.370700        37.2986 
  95   0.0000       1.430438        38.9242 
  96   0.0000       1.435261        39.0554 
  97   0.0000       1.441673        39.2299 
  98   0.0000       1.450394        39.4672 
  99   0.0000       1.455180        39.5975 
 100   0.0000       1.477510        40.2051 
 101   0.0000       1.487263        40.4705 
 102   0.0000       1.503926        40.9239 
 103   0.0000       1.565228        42.5920 
 104   0.0000       1.576564        42.9005 
 105   0.0000       1.580309        43.0024 
 106   0.0000       1.626179        44.2506 
 107   0.0000       1.635318        44.4993 
 108   0.0000       1.831248        49.8308 
 109   0.0000       1.837761        50.0080 
 110   0.0000       2.043099        55.5956 
 111   0.0000       2.092446        56.9384 
 112   0.0000       2.615098        71.1604 
 113   0.0000       2.625915        71.4548 
 114   0.0000       3.415842        92.9498 
 115   0.0000       3.449072        93.8540 
 116   0.0000       3.468618        94.3859 
 117   0.0000       3.474636        94.5497 
 118   0.0000       3.513808        95.6156 
 119   0.0000       3.527572        95.9901 
 120   0.0000       3.536059        96.2211 
 121   0.0000       3.586775        97.6011 
 122   0.0000       3.597570        97.8949 
 123   0.0000       3.611122        98.2636 
 124   0.0000       3.617203        98.4291 
 125   0.0000       3.626906        98.6931 
 126   0.0000       3.629874        98.7739 
 127   0.0000       3.743639       101.8696 
 128   0.0000       3.766081       102.4803 
 129   0.0000       3.768280       102.5401 
 130   0.0000       3.773586       102.6845 
 131   0.0000       3.776095       102.7528 
 132   0.0000       3.859478       105.0217 
 133   0.0000       3.864567       105.1602 
 134   0.0000       3.930216       106.9466 
 135   0.0000       4.092417       111.3603 
 136   0.0000       4.095493       111.4440 
 137   0.0000       4.095521       111.4448 
 138   0.0000       4.097121       111.4883 
 139   0.0000       4.100032       111.5675 
 140   0.0000       4.101142       111.5978 
 141   0.0000       4.105951       111.7286 
 142   0.0000       4.107220       111.7631 
 143   0.0000       4.108900       111.8088 
 144   0.0000       4.109528       111.8259 
 145   0.0000       4.110322       111.8475 
 146   0.0000       4.111042       111.8671 
 147   0.0000       4.111487       111.8793 
 148   0.0000       4.112822       111.9156 
 149   0.0000       4.114200       111.9531 
 150   0.0000       4.122381       112.1757 
 151   0.0000       4.123868       112.2161 
 152   0.0000       4.126983       112.3009 
 153   0.0000       4.127129       112.3049 
 154   0.0000       4.147257       112.8526 
 155   0.0000       4.162398       113.2646 
 156   0.0000       4.164685       113.3268 
 157   0.0000       4.165724       113.3551 
 158   0.0000       4.170926       113.4967 
 159   0.0000       4.291253       116.7709 
 160   0.0000       4.298103       116.9573 
 161   0.0000       4.408699       119.9668 
 162   0.0000      27.197505       740.0817 
 163   0.0000      27.370958       744.8016 
 164   0.0000      27.379633       745.0377 
 165   0.0000      27.480963       747.7950 
 166   0.0000      27.572421       750.2837 
 167   0.0000      27.583999       750.5988 
 168   0.0000      29.060306       790.7711 
 169   0.0000      29.701553       808.2203 
 170   0.0000      29.711725       808.4971 
 171   0.0000      43.920556      1195.1391 
 172   0.0000      44.437743      1209.2125 
 173   0.0000      44.446419      1209.4485 
 174   0.0000     205.079113      5580.4864 
 175   0.0000     205.301543      5586.5390 
 176   0.0000     205.310512      5586.7831 

                    ********************************
                    * MULLIKEN POPULATION ANALYSIS *
                    ********************************

--------------------------------------------
MULLIKEN ATOMIC CHARGES AND SPIN POPULATIONS
--------------------------------------------
   0 Au:   -0.108096    0.632740
   1 Au:    0.054046    0.183629
   2 Au:    0.054050    0.183630
Sum of atomic charges         :   -0.0000000
Sum of atomic spin populations:    1.0000000

-----------------------------------------------------
MULLIKEN REDUCED ORBITAL CHARGES AND SPIN POPULATIONS
-----------------------------------------------------
CHARGE
  0 Aus       :     3.182895  s :     3.182895
      pz      :     2.016612  p :     6.169775
      px      :     2.022200
      py      :     2.130963
      dz2     :     1.967787  d :     9.745056
      dxz     :     1.991541
      dyz     :     1.980885
      dx2y2   :     1.961861
      dxy     :     1.842982
      f0      :     0.001081  f :     0.010207
      f+1     :     0.000575
      f-1     :     0.001458
      f+2     :     0.000634
      f-2     :     0.001378
      f+3     :     0.002615
      f-3     :     0.002467
      g0      :     0.000014  g :     0.000163
      g+1     :     0.000009
      g-1     :     0.000022
      g+2     :     0.000011
      g-2     :     0.000019
      g+3     :     0.000017
      g-3     :     0.000004
      g+4     :     0.000032
      g-4     :     0.000035
  1 Aus       :     2.922381  s :     2.922381
      pz      :     2.020762  p :     6.178020
      px      :     2.040228
      py      :     2.117030
      dz2     :     1.966710  d :     9.834400
      dxz     :     1.987528
      dyz     :     1.992221
      dx2y2   :     1.931503
      dxy     :     1.956438
      f0      :     0.001153  f :     0.010990
      f+1     :     0.001229
      f-1     :     0.000867
      f+2     :     0.001267
      f-2     :     0.000928
      f+3     :     0.002924
      f-3     :     0.002623
      g0      :     0.000013  g :     0.000163
      g+1     :     0.000017
      g-1     :     0.000010
      g+2     :     0.000016
      g-2     :     0.000012
      g+3     :     0.000018
      g-3     :     0.000005
      g+4     :     0.000038
      g-4     :     0.000033
  2 Aus       :     2.922378  s :     2.922378
      pz      :     2.020762  p :     6.178019
      px      :     2.040227
      py      :     2.117030
      dz2     :     1.966709  d :     9.834399
      dxz     :     1.987528
      dyz     :     1.992221
      dx2y2   :     1.931503
      dxy     :     1.956438
      f0      :     0.001153  f :     0.010990
      f+1     :     0.001229
      f-1     :     0.000867
      f+2     :     0.001267
      f-2     :     0.000928
      f+3     :     0.002924
      f-3     :     0.002623
      g0      :     0.000013  g :     0.000163
      g+1     :     0.000017
      g-1     :     0.000010
      g+2     :     0.000016
      g-2     :     0.000012
      g+3     :     0.000018
      g-3     :     0.000005
      g+4     :     0.000038
      g-4     :     0.000033

SPIN
  0 Aus       :     0.493023  s :     0.493023
      pz      :     0.000360  p :     0.078256
      px      :     0.003323
      py      :     0.074573
      dz2     :     0.011031  d :     0.061643
      dxz     :     0.000750
      dyz     :     0.001593
      dx2y2   :     0.010932
      dxy     :     0.037336
      f0      :    -0.000020  f :    -0.000188
      f+1     :    -0.000010
      f-1     :     0.000009
      f+2     :    -0.000011
      f-2     :    -0.000033
      f+3     :    -0.000074
      f-3     :    -0.000049
      g0      :     0.000001  g :     0.000008
      g+1     :     0.000001
      g-1     :     0.000002
      g+2     :     0.000001
      g-2     :     0.000001
      g+3     :     0.000000
      g-3     :     0.000000
      g+4     :     0.000001
      g-4     :     0.000001
  1 Aus       :     0.090153  s :     0.090153
      pz      :    -0.000489  p :     0.074398
      px      :    -0.002504
      py      :     0.077391
      dz2     :     0.004019  d :     0.019182
      dxz     :    -0.000301
      dyz     :    -0.000478
      dx2y2   :     0.000692
      dxy     :     0.015249
      f0      :    -0.000016  f :    -0.000103
      f+1     :    -0.000017
      f-1     :     0.000016
      f+2     :    -0.000016
      f-2     :    -0.000022
      f+3     :     0.000028
      f-3     :    -0.000075
      g0      :     0.000000  g :    -0.000001
      g+1     :    -0.000000
      g-1     :     0.000000
      g+2     :    -0.000000
      g-2     :     0.000000
      g+3     :    -0.000000
      g-3     :    -0.000000
      g+4     :    -0.000001
      g-4     :    -0.000000
  2 Aus       :     0.090154  s :     0.090154
      pz      :    -0.000489  p :     0.074398
      px      :    -0.002504
      py      :     0.077391
      dz2     :     0.004019  d :     0.019182
      dxz     :    -0.000301
      dyz     :    -0.000478
      dx2y2   :     0.000692
      dxy     :     0.015249
      f0      :    -0.000016  f :    -0.000103
      f+1     :    -0.000017
      f-1     :     0.000016
      f+2     :    -0.000016
      f-2     :    -0.000022
      f+3     :     0.000028
      f-3     :    -0.000075
      g0      :     0.000000  g :    -0.000001
      g+1     :    -0.000000
      g-1     :     0.000000
      g+2     :    -0.000000
      g-2     :     0.000000
      g+3     :    -0.000000
      g-3     :    -0.000000
      g+4     :    -0.000001
      g-4     :    -0.000000


                     *******************************
                     * LOEWDIN POPULATION ANALYSIS *
                     *******************************

-------------------------------------------
LOEWDIN ATOMIC CHARGES AND SPIN POPULATIONS
-------------------------------------------
   0 Au:   -0.071392    0.532746
   1 Au:    0.035696    0.233627
   2 Au:    0.035696    0.233627

----------------------------------------------------
LOEWDIN REDUCED ORBITAL CHARGES AND SPIN POPULATIONS
----------------------------------------------------
CHARGE
  0 Aus       :     2.854675  s :     2.854675
      pz      :     2.021249  p :     6.384773
      px      :     2.046326
      py      :     2.317197
      dz2     :     1.995862  d :     9.813503
      dxz     :     1.990384
      dyz     :     1.975635
      dx2y2   :     1.970224
      dxy     :     1.881398
      f0      :     0.001614  f :     0.018199
      f+1     :     0.001109
      f-1     :     0.002929
      f+2     :     0.000852
      f-2     :     0.002221
      f+3     :     0.005827
      f-3     :     0.003647
      g0      :     0.000021  g :     0.000243
      g+1     :     0.000011
      g-1     :     0.000027
      g+2     :     0.000016
      g-2     :     0.000031
      g+3     :     0.000025
      g-3     :     0.000004
      g+4     :     0.000046
      g-4     :     0.000061
  1 Aus       :     2.688905  s :     2.688905
      pz      :     2.025331  p :     6.353343
      px      :     2.112631
      py      :     2.215382
      dz2     :     1.990615  d :     9.902195
      dxz     :     1.983725
      dyz     :     1.989887
      dx2y2   :     1.964471
      dxy     :     1.973497
      f0      :     0.001693  f :     0.019618
      f+1     :     0.002148
      f-1     :     0.001693
      f+2     :     0.001964
      f-2     :     0.001322
      f+3     :     0.006992
      f-3     :     0.003805
      g0      :     0.000018  g :     0.000244
      g+1     :     0.000022
      g-1     :     0.000014
      g+2     :     0.000028
      g-2     :     0.000020
      g+3     :     0.000026
      g-3     :     0.000005
      g+4     :     0.000061
      g-4     :     0.000050
  2 Aus       :     2.688905  s :     2.688905
      pz      :     2.025331  p :     6.353343
      px      :     2.112631
      py      :     2.215382
      dz2     :     1.990615  d :     9.902195
      dxz     :     1.983725
      dyz     :     1.989887
      dx2y2   :     1.964470
      dxy     :     1.973497
      f0      :     0.001693  f :     0.019618
      f+1     :     0.002148
      f-1     :     0.001693
      f+2     :     0.001964
      f-2     :     0.001322
      f+3     :     0.006992
      f-3     :     0.003805
      g0      :     0.000018  g :     0.000244
      g+1     :     0.000022
      g-1     :     0.000014
      g+2     :     0.000028
      g-2     :     0.000020
      g+3     :     0.000026
      g-3     :     0.000005
      g+4     :     0.000061
      g-4     :     0.000050

SPIN
  0 Aus       :     0.307369  s :     0.307369
      pz      :     0.000749  p :     0.170274
      px      :     0.001697
      py      :     0.167828
      dz2     :     0.010315  d :     0.054598
      dxz     :     0.000005
      dyz     :     0.001048
      dx2y2   :     0.011392
      dxy     :     0.031839
      f0      :    -0.000011  f :     0.000493
      f+1     :     0.000022
      f-1     :     0.000436
      f+2     :     0.000000
      f-2     :    -0.000033
      f+3     :     0.000117
      f-3     :    -0.000038
      g0      :     0.000003  g :     0.000012
      g+1     :     0.000000
      g-1     :     0.000001
      g+2     :     0.000002
      g-2     :     0.000001
      g+3     :    -0.000000
      g-3     :     0.000000
      g+4     :     0.000003
      g-4     :     0.000001
  1 Aus       :     0.059755  s :     0.059755
      pz      :    -0.000126  p :     0.142495
      px      :    -0.002759
      py      :     0.145381
      dz2     :     0.004243  d :     0.030648
      dxz     :    -0.000405
      dyz     :    -0.000324
      dx2y2   :     0.008089
      dxy     :     0.019045
      f0      :    -0.000007  f :     0.000725
      f+1     :    -0.000024
      f-1     :     0.000251
      f+2     :    -0.000006
      f-2     :    -0.000011
      f+3     :     0.000573
      f-3     :    -0.000052
      g0      :     0.000001  g :     0.000004
      g+1     :    -0.000000
      g-1     :     0.000000
      g+2     :    -0.000000
      g-2     :     0.000001
      g+3     :    -0.000000
      g-3     :    -0.000000
      g+4     :    -0.000001
      g-4     :     0.000003
  2 Aus       :     0.059755  s :     0.059755
      pz      :    -0.000126  p :     0.142495
      px      :    -0.002759
      py      :     0.145381
      dz2     :     0.004243  d :     0.030648
      dxz     :    -0.000405
      dyz     :    -0.000324
      dx2y2   :     0.008089
      dxy     :     0.019045
      f0      :    -0.000007  f :     0.000725
      f+1     :    -0.000024
      f-1     :     0.000251
      f+2     :    -0.000006
      f-2     :    -0.000011
      f+3     :     0.000573
      f-3     :    -0.000052
      g0      :     0.000001  g :     0.000004
      g+1     :    -0.000000
      g-1     :     0.000000
      g+2     :    -0.000000
      g-2     :     0.000001
      g+3     :    -0.000000
      g-3     :    -0.000000
      g+4     :    -0.000001
      g-4     :     0.000003


                      *****************************
                      * MAYER POPULATION ANALYSIS *
                      *****************************

  NA   - Mulliken gross atomic population
  ZA   - Total nuclear charge
  QA   - Mulliken gross atomic charge
  VA   - Mayer's total valence
  BVA  - Mayer's bonded valence
  FA   - Mayer's free valence

  ATOM       NA         ZA         QA         VA         BVA        FA
  0 Au    19.1081    19.0000    -0.1081     1.6493     1.2760     0.3733
  1 Au    18.9460    19.0000     0.0540     1.5020     1.4289     0.0731
  2 Au    18.9459    19.0000     0.0541     1.5020     1.4289     0.0731

  Mayer bond orders larger than 0.100000
B(  0-Au,  1-Au) :   0.6380 B(  0-Au,  2-Au) :   0.6380 B(  1-Au,  2-Au) :   0.7909 


-------
TIMINGS
-------

Total SCF time: 0 days 0 hours 0 min 7 sec 

Total time                  ....       7.726 sec
Sum of individual times     ....       7.494 sec  ( 97.0%)

Fock matrix formation       ....       5.958 sec  ( 77.1%)
  XC integration            ....       0.979 sec  ( 16.4% of F)
    Basis function eval.    ....       0.056 sec  (  5.7% of XC)
    Density eval.           ....       0.169 sec  ( 17.2% of XC)
    XC-Functional eval.     ....       0.038 sec  (  3.8% of XC)
    XC-Potential eval.      ....       0.351 sec  ( 35.9% of XC)
Diagonalization             ....       0.112 sec  (  1.5%)
Density matrix formation    ....       0.018 sec  (  0.2%)
Population analysis         ....       0.010 sec  (  0.1%)
Initial guess               ....       0.995 sec  ( 12.9%)
Orbital Transformation      ....       0.000 sec  (  0.0%)
Orbital Orthonormalization  ....       0.000 sec  (  0.0%)
DIIS solution               ....       0.036 sec  (  0.5%)
Grid generation             ....       0.364 sec  (  4.7%)


-------------------------------------------------------------------------------
                          DFT DISPERSION CORRECTION                            
                                                                               
                              DFTD3 V3.1  Rev 1                                
                          USING Becke-Johnson damping                          
-------------------------------------------------------------------------------
The TPSSH functional is recognized
Active option DFTDOPT                   ...         4   

molecular C6(AA) [au] = 2854.410647 


            DFT-D V3
 parameters
 s6 scaling factor         :     1.0000 
 a1 scaling factor         :     0.4529 
 s8 scaling factor         :     2.2382 
 a2 scaling factor         :     4.6550 
 ad hoc parameters k1-k3   :    16.0000     1.3333    -4.0000 

 Edisp/kcal,au: -3.684252968324  -0.005871230201 
 E6   /kcal   :  -1.004038328 
 E8   /kcal   :  -2.680214641 
 % E8         :  72.747845047 

-------------------------   ----------------
Dispersion correction           -0.005871230
-------------------------   ----------------


-------------------------   --------------------
FINAL SINGLE POINT ENERGY      -407.114247153056
-------------------------   --------------------


                            ***************************************
                            *     ORCA property calculations      *
                            ***************************************

                                    ---------------------
                                    Active property flags
                                    ---------------------
   (+) Dipole Moment


------------------------------------------------------------------------------
                       ORCA ELECTRIC PROPERTIES CALCULATION
------------------------------------------------------------------------------

Dipole Moment Calculation                       ... on
Quadrupole Moment Calculation                   ... off
Polarizability Calculation                      ... off
GBWName                                         ... Au03N0_D3H.gbw
Electron density file                           ... Au03N0_D3H.scfp
The origin for moment calculation is the CENTER OF MASS  = ( 0.000000,  0.000000  0.000000)

-------------
DIPOLE MOMENT
-------------
                                X             Y             Z
Electronic contribution:      0.00000      -0.49011      -0.00000
Nuclear contribution   :      0.00000       0.00000       0.00000
                        -----------------------------------------
Total Dipole Moment    :      0.00000      -0.49011      -0.00000
                        -----------------------------------------
Magnitude (a.u.)       :      0.49011
Magnitude (Debye)      :      1.24576



--------------------
Rotational spectrum 
--------------------
 
Rotational constants in cm-1:     0.024853     0.024853     0.012427 
Rotational constants in MHz :   745.088417   745.088311   372.544182 

 Dipole components along the rotational axes: 
x,y,z [a.u.] :     0.000001    -0.490108    -0.000000 
x,y,z [Debye]:     0.000002    -1.245756    -0.000000 

 

Timings for individual modules:

Sum of individual times         ...        9.138 sec (=   0.152 min)
GTO integral calculation        ...        1.046 sec (=   0.017 min)  11.5 %
SCF iterations                  ...        8.091 sec (=   0.135 min)  88.5 %
                             ****ORCA TERMINATED NORMALLY****
TOTAL RUN TIME: 0 days 0 hours 0 minutes 9 seconds 636 msec
