
                                 *****************
                                 * O   R   C   A *
                                 *****************

           --- An Ab Initio, DFT and Semiempirical electronic structure package ---

                  #######################################################
                  #                        -***-                        #
                  #          Department of theory and spectroscopy      #
                  #               Directorship: Frank Neese             #
                  #        Max Planck Institute fuer Kohlenforschung    #
                  #                Kaiser Wilhelm Platz 1               #
                  #                 D-45470 Muelheim/Ruhr               #
                  #                      Germany                        #
                  #                                                     #
                  #                  All rights reserved                #
                  #                        -***-                        #
                  #######################################################


                         Program Version 4.2.0 -  RELEASE  -


 With contributions from (in alphabetic order):
   Daniel Aravena         : Magnetic Suceptibility
   Michael Atanasov       : Ab Initio Ligand Field Theory (pilot matlab implementation)
   Alexander A. Auer      : GIAO ZORA, VPT2
   Ute Becker             : Parallelization
   Giovanni Bistoni       : ED, misc. LED, open-shell LED, HFLED
   Martin Brehm           : Molecular dynamics
   Dmytro Bykov           : SCF Hessian
   Vijay G. Chilkuri      : MRCI spin determinant printing, contributions to CSF-ICE
   Dipayan Datta          : RHF DLPNO-CCSD density
   Achintya Kumar Dutta   : EOM-CC, STEOM-CC
   Dmitry Ganyushin       : Spin-Orbit,Spin-Spin,Magnetic field MRCI
   Miquel Garcia          : C-PCM Hessian, Gaussian charge scheme
   Yang Guo               : DLPNO-NEVPT2, CIM, IAO-localization
   Andreas Hansen         : Spin unrestricted coupled pair/coupled cluster methods
   Benjamin Helmich-Paris : CASSCF linear response (MC-RPA)
   Lee Huntington         : MR-EOM, pCC
   Robert Izsak           : Overlap fitted RIJCOSX, COSX-SCS-MP3, EOM
   Christian Kollmar      : KDIIS, OOCD, Brueckner-CCSD(T), CCSD density
   Simone Kossmann        : Meta GGA functionals, TD-DFT gradient, OOMP2, MP2 Hessian
   Martin Krupicka        : AUTO-CI
   Lucas Lang             : DCDCAS
   Dagmar Lenk            : GEPOL surface, SMD
   Dimitrios Liakos       : Extrapolation schemes; Compound Job, initial MDCI parallelization
   Dimitrios Manganas     : Further ROCIS development; embedding schemes
   Dimitrios Pantazis     : SARC Basis sets
   Taras Petrenko         : DFT Hessian,TD-DFT gradient, ASA, ECA, R-Raman, ABS, FL, XAS/XES, NRVS
   Peter Pinski           : DLPNO-MP2, DLPNO-MP2 Gradient
   Christoph Reimann      : Effective Core Potentials
   Marius Retegan         : Local ZFS, SOC
   Christoph Riplinger    : Optimizer, TS searches, QM/MM, DLPNO-CCSD(T), (RO)-DLPNO pert. Triples
   Tobias Risthaus        : Range-separated hybrids, TD-DFT gradient, RPA, STAB
   Michael Roemelt        : Original ROCIS implementation
   Masaaki Saitow         : Open-shell DLPNO-CCSD energy and density
   Barbara Sandhoefer     : DKH picture change effects
   Avijit Sen             : IP-ROCIS
   Kantharuban Sivalingam : CASSCF convergence, NEVPT2, FIC-MRCI
   Bernardo de Souza      : ESD, SOC TD-DFT
   Georgi Stoychev        : AutoAux, RI-MP2 NMR
   Willem Van den Heuvel  : Paramagnetic NMR
   Boris Wezisla          : Elementary symmetry handling
   Frank Wennmohs         : Technical directorship


 We gratefully acknowledge several colleagues who have allowed us to
 interface, adapt or use parts of their codes:
   Stefan Grimme, W. Hujo, H. Kruse,             : VdW corrections, initial TS optimization,
                  C. Bannwarth                     DFT functionals, gCP, sTDA/sTD-DF
   Ed Valeev, F. Pavosevic, A. Kumar             : LibInt (2-el integral package), F12 methods
   Garnet Chan, S. Sharma, J. Yang, R. Olivares  : DMRG
   Ulf Ekstrom                                   : XCFun DFT Library
   Mihaly Kallay                                 : mrcc  (arbitrary order and MRCC methods)
   Andreas Klamt, Michael Diedenhofen            : otool_cosmo (COSMO solvation model)
   Jiri Pittner, Ondrej Demel                    : Mk-CCSD
   Frank Weinhold                                : gennbo (NPA and NBO analysis)
   Christopher J. Cramer and Donald G. Truhlar   : smd solvation model
   Lars Goerigk                                  : TD-DFT with DH, B97 family of functionals
   V. Asgeirsson, H. Jonsson                     : NEB implementation
   FAccTs GmbH                                   : IRC, NEB, NEB-TS, Multilevel, MM, QM/MM, CI optimization
   S Lehtola, MJT Oliveira, MAL Marques          : LibXC Library


 Your calculation uses the libint2 library for the computation of 2-el integrals
 For citations please refer to: http://libint.valeyev.net

 Your ORCA version has been built with support for libXC version: 4.2.3
 For citations please refer to: https://tddft.org/programs/libxc/

 This ORCA versions uses:
   CBLAS   interface :  Fast vector & matrix operations
   LAPACKE interface :  Fast linear algebra routines
   SCALAPACK package :  Parallel linear algebra routines


Your calculation utilizes the atom-pairwise dispersion correction
with the Becke-Johnson damping scheme (D3BJ)
Cite in your paper:
S.Grimme, S.Ehrlich, L.Goerigk, J Comput Chem, (2011), 32, 1456–1465 
S.Grimme, J.Antony, S.Ehrlich and H.Krieg, J.Chem.Phys., 132, (2010), 154104 
   

----- Orbital basis set information -----
Your calculation utilizes the basis: def2-TZVPPD
   F. Weigend and R. Ahlrichs, Phys. Chem. Chem. Phys. 7, 3297 (2005).
   D. Rappoport and F. Furche, J. Chem. Phys. 133 134105 (2010).

----- AuxJK basis set information -----
Your calculation utilizes the auxiliary basis: def2/JK
   H-Ba, Hf-Rn: F. Weigend, J. Comput. Chem. 29, 167 (2008).

cite the ECPs for Au [Def2-ECP] as follows:
Ce-Yb(ecp-28): M. Dolg, H. Stoll, H.Preuss, J. Chem. Phys., 1989, 90, 1730-1734.
Y-Cd(ecp-28), Hf-Hg(ecp-46): D. Andrae,U. Haeussermann, M. Dolg, H. Stoll, H. Preuss, Theor. Chim. Acta, 1990, 77, 123-141.
In-Sb(ecp-28), Tl-Bi(ecp-46): B. Metz, H. Stoll, M. Dolg, J. Chem. Phys., 2000, 113, 2563-2569.
Te-Xe(ecp-28), Po-Rn(ecp-46): K. A. Peterson, D. Figgen, E. Goll, H. Stoll, M. Dolg, J. Chem. Phys., 2003, 119, 11113-11123.
Rb(ecp-28), Cs(ecp-46): T. Leininger, A. Nicklass, W. Kuechle, H. Stoll, M. Dolg, A. Bergner, Chem. Phys. Lett., 1996, 255, 274-280.
Sr(ecp-28), Ba(ecp-46): M. Kaupp, P. V. Schleyer, H. Stoll and H. Preuss, J. Chem. Phys., 1991, 94, 1360-1366.
La(ecp-46): M. Dolg, H. Stoll, A. Savin, H. Preuss, Theor. Chim. Acta, 1989, 75, 173-194.
Lu(ecp-28): X. Cao, M. Dolg, J. Chem. Phys., 2001, 115, 7348-7355.

ECP parameters for Au [Def2-ECP] have been obtained from:
TURBOMOLE (7.0.2)

================================================================================
                                        WARNINGS
                       Please study these warnings very carefully!
================================================================================


INFO   : the flag for use of LIBINT has been found!

================================================================================
                                       INPUT FILE
================================================================================
NAME = Au03C1_D3H.in
|  1> #
|  2> # Au03C1_D3H TPSSh-D3BJ/Def2-TZVPPD
|  3> #
|  4> ! tpssh d3bj def2-tzvppd def2/jk grid4 nofinalgrid
|  5> 
|  6> *xyz 1 1
|  7> Au       0.000000    1.501400   -0.000000 
|  8> Au       1.300251   -0.750700   -0.000000 
|  9> Au      -1.300251   -0.750700   -0.000000 
| 10> *
| 11> 
| 12> %maxcore 5000
| 13> 
| 14> %pal
| 15> nprocs = 24
| 16> end
| 17> 
| 18> 
| 19>                          ****END OF INPUT****
================================================================================

                       ****************************
                       * Single Point Calculation *
                       ****************************

---------------------------------
CARTESIAN COORDINATES (ANGSTROEM)
---------------------------------
  Au     0.000000    1.501400   -0.000000
  Au     1.300251   -0.750700   -0.000000
  Au    -1.300251   -0.750700   -0.000000

----------------------------
CARTESIAN COORDINATES (A.U.)
----------------------------
  NO LB      ZA    FRAG     MASS         X           Y           Z
   0 Au   19.0000*   0   196.966    0.000000    2.837235   -0.000000
   1 Au   19.0000*   0   196.966    2.457118   -1.418617   -0.000000
   2 Au   19.0000*   0   196.966   -2.457118   -1.418617   -0.000000
* core charge reduced due to ECP

--------------------------------
INTERNAL COORDINATES (ANGSTROEM)
--------------------------------
 Au     0   0   0     0.000000000000     0.00000000     0.00000000
 Au     1   0   0     2.600501311863     0.00000000     0.00000000
 Au     1   2   0     2.600501311863    60.00001751     0.00000000

---------------------------
INTERNAL COORDINATES (A.U.)
---------------------------
 Au     0   0   0     0.000000000000     0.00000000     0.00000000
 Au     1   0   0     4.914235290324     0.00000000     0.00000000
 Au     1   2   0     4.914235290324    60.00001751     0.00000000

---------------------
BASIS SET INFORMATION
---------------------
There are 1 groups of distinct atoms

 Group   1 Type Au  : 8s8p6d2f1g contracted to 6s5p3d2f1g pattern {311111/41111/411/11/1}

Atom   0Au   basis set group =>   1
Atom   1Au   basis set group =>   1
Atom   2Au   basis set group =>   1
----------------------------------
AUXILIARY/JK BASIS SET INFORMATION
----------------------------------
There are 1 groups of distinct atoms

 Group   1 Type Au  : 13s12p11d9f5g3h2i contracted to 13s11p10d8f4g3h2i pattern {1111111111111/21111111111/2111111111/21111111/2111/111/11}

Atom   0Au   basis set group =>   1
Atom   1Au   basis set group =>   1
Atom   2Au   basis set group =>   1
-------------------------
ECP PARAMETER INFORMATION
-------------------------

 Group 1, Type Au ECP Def2-ECP (replacing 60 core electrons, lmax=3)

Atom   0Au   ECP group =>   1
Atom   1Au   ECP group =>   1
Atom   2Au   ECP group =>   1



           ************************************************************
           *        Program running with 24 parallel MPI-processes    *
           *              working on a common directory               *
           ************************************************************
------------------------------------------------------------------------------
                           ORCA GTO INTEGRAL CALCULATION
------------------------------------------------------------------------------

                         BASIS SET STATISTICS AND STARTUP INFO

 # of primitive gaussian shells          ...   75
 # of primitive gaussian functions       ...  255
 # of contracted shells                  ...   51
 # of contracted basis functions         ...  177
 Highest angular momentum                ...    4
 Maximum contraction depth               ...    4
 Integral package used                   ... LIBINT
 Integral threshhold            Thresh   ...  1.000e-10
 Primitive cut-off              TCut     ...  1.000e-11


------------------------------ INTEGRAL EVALUATION ----------------------------


 * One electron integrals 

   ECP integrals                         ... done
 Pre-screening matrix                    ... done
 Shell pair data                         ... done (   0.000 sec)



           ************************************************************
           *        Program running with 24 parallel MPI-processes    *
           *              working on a common directory               *
           ************************************************************
-------------------------------------------------------------------------------
                                 ORCA SCF
-------------------------------------------------------------------------------

------------
SCF SETTINGS
------------
Hamiltonian:
 Density Functional     Method          .... DFT(GTOs)
 Exchange Functional    Exchange        .... TPSS
 Correlation Functional Correlation     .... TPSS
 LDA part of GGA corr.  LDAOpt          .... PW91-LDA
 Gradients option       PostSCFGGA      .... off
 Hybrid DFT is turned on
   Fraction HF Exchange ScalHFX         ....  0.100000
   Scaling of DF-GGA-X  ScalDFX         ....  0.900000
   Scaling of DF-GGA-C  ScalDFC         ....  1.000000
   Scaling of DF-LDA-C  ScalLDAC        ....  1.000000
   Perturbative correction              ....  0.000000
   Density functional embedding theory  .... OFF
   NL short-range parameter             ....  5.200000


General Settings:
 Integral files         IntName         .... Au03C1_D3H
 Hartree-Fock type      HFTyp           .... RHF
 Total Charge           Charge          ....    1
 Multiplicity           Mult            ....    1
 Number of Electrons    NEL             ....   56
 Basis Dimension        Dim             ....  177
 Nuclear Repulsion      ENuc            ....    220.3801487905 Eh

Convergence Acceleration:
 DIIS                   CNVDIIS         .... on
   Start iteration      DIISMaxIt       ....    12
   Startup error        DIISStart       ....  0.200000
   # of expansion vecs  DIISMaxEq       ....     5
   Bias factor          DIISBfac        ....   1.050
   Max. coefficient     DIISMaxC        ....  10.000
 Newton-Raphson         CNVNR           .... off
 SOSCF                  CNVSOSCF        .... off
 Level Shifting         CNVShift        .... on
   Level shift para.    LevelShift      ....    0.2500
   Turn off err/grad.   ShiftErr        ....    0.0010
 Zerner damping         CNVZerner       .... off
 Static damping         CNVDamp         .... on
   Fraction old density DampFac         ....    0.7000
   Max. Damping (<1)    DampMax         ....    0.9800
   Min. Damping (>=0)   DampMin         ....    0.0000
   Turn off err/grad.   DampErr         ....    0.1000
 Fernandez-Rico         CNVRico         .... off

SCF Procedure:
 Maximum # iterations   MaxIter         ....   125
 SCF integral mode      SCFMode         .... Direct
   Integral package                     .... LIBINT
 Reset frequency        DirectResetFreq ....    20
 Integral Threshold     Thresh          ....  1.000e-10 Eh
 Primitive CutOff       TCut            ....  1.000e-11 Eh

Convergence Tolerance:
 Convergence Check Mode ConvCheckMode   .... Total+1el-Energy
 Convergence forced     ConvForced      .... 0
 Energy Change          TolE            ....  1.000e-06 Eh
 1-El. energy change                    ....  1.000e-03 Eh
 DIIS Error             TolErr          ....  1.000e-06


Diagonalization of the overlap matrix:
Smallest eigenvalue                        ... 1.610e-03
Time for diagonalization                   ...    0.007 sec
Threshold for overlap eigenvalues          ... 1.000e-08
Number of eigenvalues below threshold      ... 0
Time for construction of square roots      ...    0.003 sec
Total time needed                          ...    0.011 sec

-------------------
DFT GRID GENERATION
-------------------

General Integration Accuracy     IntAcc      ...  4.670
Radial Grid Type                 RadialGrid  ... Gauss-Chebyshev
Angular Grid (max. acc.)         AngularGrid ... Lebedev-302
Angular grid pruning method      GridPruning ... 3 (G Style)
Weight generation scheme         WeightScheme... Becke
Basis function cutoff            BFCut       ...    1.0000e-10
Integration weight cutoff        WCut        ...    1.0000e-14
Grids for H and He will be reduced by one unit

# of grid points (after initial pruning)     ...  34956 (   0.0 sec)
# of grid points (after weights+screening)   ...  34814 (   0.0 sec)
nearest neighbour list constructed           ...    0.0 sec
Grid point re-assignment to atoms done       ...    0.0 sec
Grid point division into batches done        ...    0.3 sec
Reduced shell lists constructed in    0.3 sec

Total number of grid points                  ...    34814
Total number of batches                      ...      545
Average number of points per batch           ...       63
Average number of grid points per atom       ...    11605
Average number of shells per batch           ...     4.42 ( 8.66%)
Average number of basis functions per batch  ...    11.17 ( 6.31%)
Average number of large shells per batch     ...     2.62 (59.43%)
Average number of large basis fcns per batch ...     6.38 (57.09%)
Maximum spatial batch extension              ...  27.50, 22.87, 24.85 au
Average spatial batch extension              ...   0.74,  0.63,  0.66 au

Time for grid setup =    0.363 sec

------------------------------
INITIAL GUESS: MODEL POTENTIAL
------------------------------
Loading Hartree-Fock densities                     ... done
  calling /sw/apps/orca/orca_4_2_0_linux_x86-64_openmpi314/orca Au03C1_D3H_atom79.inp > Au03C1_D3H_atom79.out in order to generate an atomic fitting density for atom 0 (Au with ECP) on-the-fly... 
    atom 0 (Au), assumed electronic state with S=2: 1s2 2s2 2p6 3s2 3p6 4s2 3d10 4p6 5s2 4d10 5p6 6s1 4f14 5d10           ... done
Calculating cut-offs                               ... done
Setting up the integral package                    ... done
Initializing the effective Hamiltonian             ... done
Starting the Coulomb interaction                   ... done (   0.0 sec)
Reading the grid                                   ... done
Mapping shells                                     ... done
Starting the XC term evaluation                    ... done (   0.0 sec)
  promolecular density results
     # of electrons  =    237.007576728
     EX              =  -1097.422794464
     EC              =    -14.482740175
     EX+EC           =  -1111.905534639
Transforming the Hamiltonian                       ... done (   0.0 sec)
Diagonalizing the Hamiltonian                      ... done (   0.0 sec)
Back transforming the eigenvectors                 ... done (   0.0 sec)
Now organizing SCF variables                       ... done
                      ------------------
                      INITIAL GUESS DONE (   1.5 sec)
                      ------------------
--------------
SCF ITERATIONS
--------------
ITER       Energy         Delta-E        Max-DP      RMS-DP      [F,P]     Damp
               ***  Starting incremental Fock matrix formation  ***
  0   -406.5720597196   0.000000000000 0.21787788  0.00327091  0.5848738 0.7000
  1   -406.6923250578  -0.120265338262 0.14850936  0.00215071  0.4023775 0.7000
  2   -406.7433034263  -0.050978368499 0.09648698  0.00131894  0.2766374 0.7000
                               ***Turning on DIIS***
  3   -406.7776333531  -0.034329926729 0.06549183  0.00088217  0.1918994 0.7000
  4   -406.8025866243  -0.024953271267 0.04551068  0.00061582  0.1339193 0.7000
  5   -406.8201389702  -0.017552345855 0.10979614  0.00149041  0.0938641 0.0000
  6   -406.8609777396  -0.040838769466 0.00662705  0.00012709  0.0008559 0.0000
  7   -406.8610106213  -0.000032881634 0.00051884  0.00001643  0.0009039 0.0000
  8   -406.8610134914  -0.000002870159 0.00041673  0.00001036  0.0003631 0.0000
  9   -406.8610142404  -0.000000748939 0.00005424  0.00000223  0.0000981 0.0000
 10   -406.8610143004  -0.000000060039 0.00002165  0.00000070  0.0000199 0.0000
                 **** Energy Check signals convergence ****

               *****************************************************
               *                     SUCCESS                       *
               *           SCF CONVERGED AFTER  11 CYCLES          *
               *****************************************************


----------------
TOTAL SCF ENERGY
----------------

Total Energy       :         -406.86101430 Eh          -11071.25105 eV

Components:
Nuclear Repulsion  :          220.38014879 Eh            5996.84872 eV
Electronic Energy  :         -627.24116309 Eh          -17068.09977 eV
One Electron Energy:        -1144.54375008 Eh          -31144.61880 eV
Two Electron Energy:          517.30258698 Eh           14076.51903 eV

Virial components:
Potential Energy   :         -544.48052880 Eh          -14816.06842 eV
Kinetic Energy     :          137.61951450 Eh            3744.81737 eV
Virial Ratio       :            3.95641949


DFT components:
N(Alpha)           :       27.999992046723 electrons
N(Beta)            :       27.999992046723 electrons
N(Total)           :       55.999984093445 electrons
E(X)               :      -32.244469779313 Eh       
E(C)               :       -2.415293843416 Eh       
E(XC)              :      -34.659763622730 Eh       
DFET-embed. en.    :        0.000000000000 Eh       

---------------
SCF CONVERGENCE
---------------

  Last Energy change         ...   -1.8781e-09  Tolerance :   1.0000e-06
  Last MAX-Density change    ...    9.6322e-06  Tolerance :   1.0000e-05
  Last RMS-Density change    ...    3.6375e-07  Tolerance :   1.0000e-06
  Last DIIS Error            ...    1.3796e-05  Tolerance :   1.0000e-06

             **** THE GBW FILE WAS UPDATED (Au03C1_D3H.gbw) ****
             **** DENSITY FILE WAS UPDATED (Au03C1_D3H.scfp) ****
             **** ENERGY FILE WAS UPDATED (Au03C1_D3H.en.tmp) ****
             **** THE GBW FILE WAS UPDATED (Au03C1_D3H.gbw) ****
             **** DENSITY FILE WAS UPDATED (Au03C1_D3H.scfp) ****
----------------
ORBITAL ENERGIES
----------------

  NO   OCC          E(Eh)            E(eV) 
   0   2.0000      -4.294275      -116.8532 
   1   2.0000      -4.293711      -116.8378 
   2   2.0000      -4.293710      -116.8378 
   3   2.0000      -2.497328       -67.9557 
   4   2.0000      -2.490358       -67.7661 
   5   2.0000      -2.490352       -67.7659 
   6   2.0000      -2.484778       -67.6142 
   7   2.0000      -2.484762       -67.6138 
   8   2.0000      -2.482924       -67.5638 
   9   2.0000      -2.480273       -67.4917 
  10   2.0000      -2.479265       -67.4642 
  11   2.0000      -2.479262       -67.4641 
  12   2.0000      -0.584674       -15.9098 
  13   2.0000      -0.543826       -14.7982 
  14   2.0000      -0.543822       -14.7981 
  15   2.0000      -0.533762       -14.5244 
  16   2.0000      -0.513125       -13.9628 
  17   2.0000      -0.502339       -13.6693 
  18   2.0000      -0.502334       -13.6692 
  19   2.0000      -0.473157       -12.8753 
  20   2.0000      -0.473155       -12.8752 
  21   2.0000      -0.467789       -12.7292 
  22   2.0000      -0.466348       -12.6900 
  23   2.0000      -0.466338       -12.6897 
  24   2.0000      -0.464714       -12.6455 
  25   2.0000      -0.463874       -12.6226 
  26   2.0000      -0.463872       -12.6226 
  27   2.0000      -0.438549       -11.9335 
  28   0.0000      -0.323622        -8.8062 
  29   0.0000      -0.323622        -8.8062 
  30   0.0000      -0.212928        -5.7941 
  31   0.0000      -0.186157        -5.0656 
  32   0.0000      -0.171446        -4.6653 
  33   0.0000      -0.171444        -4.6652 
  34   0.0000      -0.115534        -3.1438 
  35   0.0000      -0.115533        -3.1438 
  36   0.0000      -0.060576        -1.6483 
  37   0.0000      -0.060574        -1.6483 
  38   0.0000      -0.043233        -1.1764 
  39   0.0000      -0.005534        -0.1506 
  40   0.0000       0.012002         0.3266 
  41   0.0000       0.017546         0.4774 
  42   0.0000       0.033334         0.9071 
  43   0.0000       0.033336         0.9071 
  44   0.0000       0.070998         1.9319 
  45   0.0000       0.070998         1.9320 
  46   0.0000       0.084430         2.2975 
  47   0.0000       0.084435         2.2976 
  48   0.0000       0.115601         3.1457 
  49   0.0000       0.138232         3.7615 
  50   0.0000       0.141608         3.8534 
  51   0.0000       0.141612         3.8534 
  52   0.0000       0.155774         4.2388 
  53   0.0000       0.155782         4.2391 
  54   0.0000       0.168403         4.5825 
  55   0.0000       0.216934         5.9031 
  56   0.0000       0.216935         5.9031 
  57   0.0000       0.249009         6.7759 
  58   0.0000       0.287779         7.8309 
  59   0.0000       0.287784         7.8310 
  60   0.0000       0.296785         8.0759 
  61   0.0000       0.296786         8.0759 
  62   0.0000       0.308456         8.3935 
  63   0.0000       0.382758        10.4154 
  64   0.0000       0.382772        10.4158 
  65   0.0000       0.397109        10.8059 
  66   0.0000       0.601992        16.3810 
  67   0.0000       0.699271        19.0281 
  68   0.0000       0.707591        19.2545 
  69   0.0000       0.707600        19.2548 
  70   0.0000       0.713084        19.4040 
  71   0.0000       0.786386        21.3987 
  72   0.0000       0.786390        21.3988 
  73   0.0000       0.852551        23.1991 
  74   0.0000       0.873755        23.7761 
  75   0.0000       0.873761        23.7762 
  76   0.0000       0.880052        23.9474 
  77   0.0000       0.881198        23.9786 
  78   0.0000       0.881206        23.9788 
  79   0.0000       0.905695        24.6452 
  80   0.0000       0.905696        24.6452 
  81   0.0000       0.940469        25.5915 
  82   0.0000       0.952847        25.9283 
  83   0.0000       0.952855        25.9285 
  84   0.0000       1.008390        27.4397 
  85   0.0000       1.025774        27.9127 
  86   0.0000       1.025782        27.9129 
  87   0.0000       1.115112        30.3437 
  88   0.0000       1.130055        30.7503 
  89   0.0000       1.130058        30.7504 
  90   0.0000       1.134414        30.8690 
  91   0.0000       1.151144        31.3242 
  92   0.0000       1.151151        31.3244 
  93   0.0000       1.173504        31.9327 
  94   0.0000       1.173512        31.9329 
  95   0.0000       1.233763        33.5724 
  96   0.0000       1.244165        33.8555 
  97   0.0000       1.246068        33.9072 
  98   0.0000       1.256496        34.1910 
  99   0.0000       1.256506        34.1913 
 100   0.0000       1.289603        35.0919 
 101   0.0000       1.289610        35.0921 
 102   0.0000       1.307874        35.5891 
 103   0.0000       1.377139        37.4739 
 104   0.0000       1.389715        37.8161 
 105   0.0000       1.389721        37.8162 
 106   0.0000       1.445398        39.3313 
 107   0.0000       1.445430        39.3321 
 108   0.0000       1.656137        45.0658 
 109   0.0000       1.656195        45.0674 
 110   0.0000       1.869450        50.8703 
 111   0.0000       1.906200        51.8703 
 112   0.0000       2.438527        66.3557 
 113   0.0000       2.438557        66.3565 
 114   0.0000       3.215426        87.4962 
 115   0.0000       3.248631        88.3997 
 116   0.0000       3.271252        89.0153 
 117   0.0000       3.271348        89.0179 
 118   0.0000       3.313420        90.1627 
 119   0.0000       3.332006        90.6685 
 120   0.0000       3.332160        90.6727 
 121   0.0000       3.394775        92.3765 
 122   0.0000       3.395004        92.3828 
 123   0.0000       3.414284        92.9074 
 124   0.0000       3.432138        93.3932 
 125   0.0000       3.435987        93.4980 
 126   0.0000       3.436048        93.4996 
 127   0.0000       3.549709        96.5925 
 128   0.0000       3.572080        97.2012 
 129   0.0000       3.572263        97.2062 
 130   0.0000       3.576440        97.3199 
 131   0.0000       3.576998        97.3351 
 132   0.0000       3.658469        99.5520 
 133   0.0000       3.658856        99.5625 
 134   0.0000       3.723318       101.3166 
 135   0.0000       3.889312       105.8336 
 136   0.0000       3.889729       105.8449 
 137   0.0000       3.892636       105.9240 
 138   0.0000       3.896984       106.0423 
 139   0.0000       3.897395       106.0535 
 140   0.0000       3.899402       106.1081 
 141   0.0000       3.904641       106.2507 
 142   0.0000       3.905047       106.2617 
 143   0.0000       3.905585       106.2764 
 144   0.0000       3.905738       106.2805 
 145   0.0000       3.908068       106.3439 
 146   0.0000       3.908166       106.3466 
 147   0.0000       3.913059       106.4797 
 148   0.0000       3.913080       106.4803 
 149   0.0000       3.913485       106.4913 
 150   0.0000       3.913739       106.4983 
 151   0.0000       3.913926       106.5034 
 152   0.0000       3.914130       106.5089 
 153   0.0000       3.918484       106.6274 
 154   0.0000       3.956913       107.6731 
 155   0.0000       3.964580       107.8817 
 156   0.0000       3.964580       107.8817 
 157   0.0000       3.972791       108.1051 
 158   0.0000       3.972830       108.1062 
 159   0.0000       4.111785       111.8874 
 160   0.0000       4.111857       111.8893 
 161   0.0000       4.237999       115.3218 
 162   0.0000      26.990648       734.4529 
 163   0.0000      27.179423       739.5897 
 164   0.0000      27.179618       739.5950 
 165   0.0000      27.269982       742.0539 
 166   0.0000      27.394326       745.4375 
 167   0.0000      27.394388       745.4392 
 168   0.0000      28.970497       788.3273 
 169   0.0000      29.686549       807.8121 
 170   0.0000      29.686607       807.8137 
 171   0.0000      43.729852      1189.9498 
 172   0.0000      44.262699      1204.4493 
 173   0.0000      44.262700      1204.4493 
 174   0.0000     204.883337      5575.1590 
 175   0.0000     205.114667      5581.4538 
 176   0.0000     205.114670      5581.4539 

                    ********************************
                    * MULLIKEN POPULATION ANALYSIS *
                    ********************************

-----------------------
MULLIKEN ATOMIC CHARGES
-----------------------
   0 Au:    0.333361
   1 Au:    0.333323
   2 Au:    0.333316
Sum of atomic charges:    1.0000000

--------------------------------
MULLIKEN REDUCED ORBITAL CHARGES
--------------------------------
  0 Aus       :     2.748068  s :     2.748068
      pz      :     2.017253  p :     6.100821
      px      :     2.027374
      py      :     2.056194
      dz2     :     1.970219  d :     9.805724
      dxz     :     1.993201
      dyz     :     1.985769
      dx2y2   :     1.966388
      dxy     :     1.890147
      f0      :     0.001294  f :     0.011838
      f+1     :     0.000669
      f-1     :     0.001578
      f+2     :     0.000771
      f-2     :     0.001652
      f+3     :     0.002970
      f-3     :     0.002905
      g0      :     0.000016  g :     0.000189
      g+1     :     0.000010
      g-1     :     0.000025
      g+2     :     0.000013
      g-2     :     0.000021
      g+3     :     0.000020
      g-3     :     0.000005
      g+4     :     0.000036
      g-4     :     0.000042
  1 Aus       :     2.748082  s :     2.748082
      pz      :     2.017254  p :     6.100833
      px      :     2.049006
      py      :     2.034573
      dz2     :     1.970239  d :     9.805736
      dxz     :     1.987626
      dyz     :     1.991344
      dx2y2   :     1.909189
      dxy     :     1.947339
      f0      :     0.001294  f :     0.011838
      f+1     :     0.001351
      f-1     :     0.000896
      f+2     :     0.001431
      f-2     :     0.000991
      f+3     :     0.002969
      f-3     :     0.002905
      g0      :     0.000016  g :     0.000189
      g+1     :     0.000022
      g-1     :     0.000014
      g+2     :     0.000019
      g-2     :     0.000015
      g+3     :     0.000020
      g-3     :     0.000005
      g+4     :     0.000040
      g-4     :     0.000038
  2 Aus       :     2.748087  s :     2.748087
      pz      :     2.017254  p :     6.100835
      px      :     2.049008
      py      :     2.034574
      dz2     :     1.970239  d :     9.805736
      dxz     :     1.987626
      dyz     :     1.991344
      dx2y2   :     1.909189
      dxy     :     1.947339
      f0      :     0.001294  f :     0.011838
      f+1     :     0.001351
      f-1     :     0.000896
      f+2     :     0.001431
      f-2     :     0.000991
      f+3     :     0.002969
      f-3     :     0.002905
      g0      :     0.000016  g :     0.000189
      g+1     :     0.000022
      g-1     :     0.000014
      g+2     :     0.000019
      g-2     :     0.000015
      g+3     :     0.000020
      g-3     :     0.000005
      g+4     :     0.000040
      g-4     :     0.000038


                     *******************************
                     * LOEWDIN POPULATION ANALYSIS *
                     *******************************

----------------------
LOEWDIN ATOMIC CHARGES
----------------------
   0 Au:    0.333330
   1 Au:    0.333335
   2 Au:    0.333335

-------------------------------
LOEWDIN REDUCED ORBITAL CHARGES
-------------------------------
  0 Aus       :     2.574188  s :     2.574188
      pz      :     2.020824  p :     6.203405
      px      :     2.046873
      py      :     2.135708
      dz2     :     1.994880  d :     9.868619
      dxz     :     1.992273
      dyz     :     1.981437
      dx2y2   :     1.973769
      dxy     :     1.926260
      f0      :     0.001859  f :     0.020180
      f+1     :     0.001276
      f-1     :     0.002695
      f+2     :     0.001000
      f-2     :     0.002529
      f+3     :     0.006660
      f-3     :     0.004161
      g0      :     0.000022  g :     0.000278
      g+1     :     0.000012
      g-1     :     0.000032
      g+2     :     0.000019
      g-2     :     0.000036
      g+3     :     0.000029
      g-3     :     0.000005
      g+4     :     0.000049
      g-4     :     0.000073
  1 Aus       :     2.574196  s :     2.574196
      pz      :     2.020824  p :     6.203400
      px      :     2.113499
      py      :     2.069077
      dz2     :     1.994889  d :     9.868612
      dxz     :     1.984145
      dyz     :     1.989565
      dx2y2   :     1.938121
      dxy     :     1.961892
      f0      :     0.001859  f :     0.020179
      f+1     :     0.002340
      f-1     :     0.001630
      f+2     :     0.002146
      f-2     :     0.001382
      f+3     :     0.006659
      f-3     :     0.004161
      g0      :     0.000022  g :     0.000278
      g+1     :     0.000027
      g-1     :     0.000017
      g+2     :     0.000031
      g-2     :     0.000023
      g+3     :     0.000029
      g-3     :     0.000005
      g+4     :     0.000067
      g-4     :     0.000055
  2 Aus       :     2.574196  s :     2.574196
      pz      :     2.020824  p :     6.203401
      px      :     2.113499
      py      :     2.069077
      dz2     :     1.994889  d :     9.868612
      dxz     :     1.984145
      dyz     :     1.989565
      dx2y2   :     1.938121
      dxy     :     1.961892
      f0      :     0.001859  f :     0.020179
      f+1     :     0.002340
      f-1     :     0.001630
      f+2     :     0.002146
      f-2     :     0.001382
      f+3     :     0.006659
      f-3     :     0.004161
      g0      :     0.000022  g :     0.000278
      g+1     :     0.000027
      g-1     :     0.000017
      g+2     :     0.000031
      g-2     :     0.000023
      g+3     :     0.000029
      g-3     :     0.000005
      g+4     :     0.000067
      g-4     :     0.000055


                      *****************************
                      * MAYER POPULATION ANALYSIS *
                      *****************************

  NA   - Mulliken gross atomic population
  ZA   - Total nuclear charge
  QA   - Mulliken gross atomic charge
  VA   - Mayer's total valence
  BVA  - Mayer's bonded valence
  FA   - Mayer's free valence

  ATOM       NA         ZA         QA         VA         BVA        FA
  0 Au    18.6666    19.0000     0.3334     1.3498     1.3498     0.0000
  1 Au    18.6667    19.0000     0.3333     1.3499     1.3499    -0.0000
  2 Au    18.6667    19.0000     0.3333     1.3499     1.3499    -0.0000

  Mayer bond orders larger than 0.100000
B(  0-Au,  1-Au) :   0.6749 B(  0-Au,  2-Au) :   0.6749 B(  1-Au,  2-Au) :   0.6750 


-------
TIMINGS
-------

Total SCF time: 0 days 0 hours 0 min 6 sec 

Total time                  ....       6.829 sec
Sum of individual times     ....       6.631 sec  ( 97.1%)

Fock matrix formation       ....       5.067 sec  ( 74.2%)
  XC integration            ....       0.696 sec  ( 13.7% of F)
    Basis function eval.    ....       0.051 sec  (  7.3% of XC)
    Density eval.           ....       0.085 sec  ( 12.2% of XC)
    XC-Functional eval.     ....       0.032 sec  (  4.6% of XC)
    XC-Potential eval.      ....       0.145 sec  ( 20.9% of XC)
Diagonalization             ....       0.050 sec  (  0.7%)
Density matrix formation    ....       0.008 sec  (  0.1%)
Population analysis         ....       0.005 sec  (  0.1%)
Initial guess               ....       1.117 sec  ( 16.4%)
Orbital Transformation      ....       0.000 sec  (  0.0%)
Orbital Orthonormalization  ....       0.000 sec  (  0.0%)
DIIS solution               ....       0.021 sec  (  0.3%)
Grid generation             ....       0.363 sec  (  5.3%)


-------------------------------------------------------------------------------
                          DFT DISPERSION CORRECTION                            
                                                                               
                              DFTD3 V3.1  Rev 1                                
                          USING Becke-Johnson damping                          
-------------------------------------------------------------------------------
The TPSSH functional is recognized
Active option DFTDOPT                   ...         4   

molecular C6(AA) [au] = 2854.409636 


            DFT-D V3
 parameters
 s6 scaling factor         :     1.0000 
 a1 scaling factor         :     0.4529 
 s8 scaling factor         :     2.2382 
 a2 scaling factor         :     4.6550 
 ad hoc parameters k1-k3   :    16.0000     1.3333    -4.0000 

 Edisp/kcal,au: -3.687012435461  -0.005875627691 
 E6   /kcal   :  -1.005379320 
 E8   /kcal   :  -2.681633116 
 % E8         :  72.731870663 

-------------------------   ----------------
Dispersion correction           -0.005875628
-------------------------   ----------------


-------------------------   --------------------
FINAL SINGLE POINT ENERGY      -406.866889929979
-------------------------   --------------------


                            ***************************************
                            *     ORCA property calculations      *
                            ***************************************

                                    ---------------------
                                    Active property flags
                                    ---------------------
   (+) Dipole Moment


------------------------------------------------------------------------------
                       ORCA ELECTRIC PROPERTIES CALCULATION
------------------------------------------------------------------------------

Dipole Moment Calculation                       ... on
Quadrupole Moment Calculation                   ... off
Polarizability Calculation                      ... off
GBWName                                         ... Au03C1_D3H.gbw
Electron density file                           ... Au03C1_D3H.scfp
The origin for moment calculation is the CENTER OF MASS  = ( 0.000000,  0.000000  0.000000)

-------------
DIPOLE MOMENT
-------------
                                X             Y             Z
Electronic contribution:      0.00000      -0.00005       0.00000
Nuclear contribution   :      0.00000       0.00000      -0.00000
                        -----------------------------------------
Total Dipole Moment    :      0.00000      -0.00005       0.00000
                        -----------------------------------------
Magnitude (a.u.)       :      0.00005
Magnitude (Debye)      :      0.00012



--------------------
Rotational spectrum 
--------------------
 
Rotational constants in cm-1:     0.025312     0.025312     0.012656 
Rotational constants in MHz :   758.824167   758.823632   379.411950 

 Dipole components along the rotational axes: 
x,y,z [a.u.] :     0.000000    -0.000046     0.000000 
x,y,z [Debye]:     0.000001    -0.000117     0.000000 

 

Timings for individual modules:

Sum of individual times         ...        8.249 sec (=   0.137 min)
GTO integral calculation        ...        1.067 sec (=   0.018 min)  12.9 %
SCF iterations                  ...        7.182 sec (=   0.120 min)  87.1 %
                             ****ORCA TERMINATED NORMALLY****
TOTAL RUN TIME: 0 days 0 hours 0 minutes 8 seconds 734 msec
