
                                 *****************
                                 * O   R   C   A *
                                 *****************

           --- An Ab Initio, DFT and Semiempirical electronic structure package ---

                  #######################################################
                  #                        -***-                        #
                  #          Department of theory and spectroscopy      #
                  #               Directorship: Frank Neese             #
                  #        Max Planck Institute fuer Kohlenforschung    #
                  #                Kaiser Wilhelm Platz 1               #
                  #                 D-45470 Muelheim/Ruhr               #
                  #                      Germany                        #
                  #                                                     #
                  #                  All rights reserved                #
                  #                        -***-                        #
                  #######################################################


                         Program Version 4.2.0 -  RELEASE  -


 With contributions from (in alphabetic order):
   Daniel Aravena         : Magnetic Suceptibility
   Michael Atanasov       : Ab Initio Ligand Field Theory (pilot matlab implementation)
   Alexander A. Auer      : GIAO ZORA, VPT2
   Ute Becker             : Parallelization
   Giovanni Bistoni       : ED, misc. LED, open-shell LED, HFLED
   Martin Brehm           : Molecular dynamics
   Dmytro Bykov           : SCF Hessian
   Vijay G. Chilkuri      : MRCI spin determinant printing, contributions to CSF-ICE
   Dipayan Datta          : RHF DLPNO-CCSD density
   Achintya Kumar Dutta   : EOM-CC, STEOM-CC
   Dmitry Ganyushin       : Spin-Orbit,Spin-Spin,Magnetic field MRCI
   Miquel Garcia          : C-PCM Hessian, Gaussian charge scheme
   Yang Guo               : DLPNO-NEVPT2, CIM, IAO-localization
   Andreas Hansen         : Spin unrestricted coupled pair/coupled cluster methods
   Benjamin Helmich-Paris : CASSCF linear response (MC-RPA)
   Lee Huntington         : MR-EOM, pCC
   Robert Izsak           : Overlap fitted RIJCOSX, COSX-SCS-MP3, EOM
   Christian Kollmar      : KDIIS, OOCD, Brueckner-CCSD(T), CCSD density
   Simone Kossmann        : Meta GGA functionals, TD-DFT gradient, OOMP2, MP2 Hessian
   Martin Krupicka        : AUTO-CI
   Lucas Lang             : DCDCAS
   Dagmar Lenk            : GEPOL surface, SMD
   Dimitrios Liakos       : Extrapolation schemes; Compound Job, initial MDCI parallelization
   Dimitrios Manganas     : Further ROCIS development; embedding schemes
   Dimitrios Pantazis     : SARC Basis sets
   Taras Petrenko         : DFT Hessian,TD-DFT gradient, ASA, ECA, R-Raman, ABS, FL, XAS/XES, NRVS
   Peter Pinski           : DLPNO-MP2, DLPNO-MP2 Gradient
   Christoph Reimann      : Effective Core Potentials
   Marius Retegan         : Local ZFS, SOC
   Christoph Riplinger    : Optimizer, TS searches, QM/MM, DLPNO-CCSD(T), (RO)-DLPNO pert. Triples
   Tobias Risthaus        : Range-separated hybrids, TD-DFT gradient, RPA, STAB
   Michael Roemelt        : Original ROCIS implementation
   Masaaki Saitow         : Open-shell DLPNO-CCSD energy and density
   Barbara Sandhoefer     : DKH picture change effects
   Avijit Sen             : IP-ROCIS
   Kantharuban Sivalingam : CASSCF convergence, NEVPT2, FIC-MRCI
   Bernardo de Souza      : ESD, SOC TD-DFT
   Georgi Stoychev        : AutoAux, RI-MP2 NMR
   Willem Van den Heuvel  : Paramagnetic NMR
   Boris Wezisla          : Elementary symmetry handling
   Frank Wennmohs         : Technical directorship


 We gratefully acknowledge several colleagues who have allowed us to
 interface, adapt or use parts of their codes:
   Stefan Grimme, W. Hujo, H. Kruse,             : VdW corrections, initial TS optimization,
                  C. Bannwarth                     DFT functionals, gCP, sTDA/sTD-DF
   Ed Valeev, F. Pavosevic, A. Kumar             : LibInt (2-el integral package), F12 methods
   Garnet Chan, S. Sharma, J. Yang, R. Olivares  : DMRG
   Ulf Ekstrom                                   : XCFun DFT Library
   Mihaly Kallay                                 : mrcc  (arbitrary order and MRCC methods)
   Andreas Klamt, Michael Diedenhofen            : otool_cosmo (COSMO solvation model)
   Jiri Pittner, Ondrej Demel                    : Mk-CCSD
   Frank Weinhold                                : gennbo (NPA and NBO analysis)
   Christopher J. Cramer and Donald G. Truhlar   : smd solvation model
   Lars Goerigk                                  : TD-DFT with DH, B97 family of functionals
   V. Asgeirsson, H. Jonsson                     : NEB implementation
   FAccTs GmbH                                   : IRC, NEB, NEB-TS, Multilevel, MM, QM/MM, CI optimization
   S Lehtola, MJT Oliveira, MAL Marques          : LibXC Library


 Your calculation uses the libint2 library for the computation of 2-el integrals
 For citations please refer to: http://libint.valeyev.net

 Your ORCA version has been built with support for libXC version: 4.2.3
 For citations please refer to: https://tddft.org/programs/libxc/

 This ORCA versions uses:
   CBLAS   interface :  Fast vector & matrix operations
   LAPACKE interface :  Fast linear algebra routines
   SCALAPACK package :  Parallel linear algebra routines


Your calculation utilizes the atom-pairwise dispersion correction
with the Becke-Johnson damping scheme (D3BJ)
Cite in your paper:
S.Grimme, S.Ehrlich, L.Goerigk, J Comput Chem, (2011), 32, 1456–1465 
S.Grimme, J.Antony, S.Ehrlich and H.Krieg, J.Chem.Phys., 132, (2010), 154104 
   

----- Orbital basis set information -----
Your calculation utilizes the basis: def2-TZVPPD
   F. Weigend and R. Ahlrichs, Phys. Chem. Chem. Phys. 7, 3297 (2005).
   D. Rappoport and F. Furche, J. Chem. Phys. 133 134105 (2010).

----- AuxJK basis set information -----
Your calculation utilizes the auxiliary basis: def2/JK
   H-Ba, Hf-Rn: F. Weigend, J. Comput. Chem. 29, 167 (2008).

cite the ECPs for Au [Def2-ECP] as follows:
Ce-Yb(ecp-28): M. Dolg, H. Stoll, H.Preuss, J. Chem. Phys., 1989, 90, 1730-1734.
Y-Cd(ecp-28), Hf-Hg(ecp-46): D. Andrae,U. Haeussermann, M. Dolg, H. Stoll, H. Preuss, Theor. Chim. Acta, 1990, 77, 123-141.
In-Sb(ecp-28), Tl-Bi(ecp-46): B. Metz, H. Stoll, M. Dolg, J. Chem. Phys., 2000, 113, 2563-2569.
Te-Xe(ecp-28), Po-Rn(ecp-46): K. A. Peterson, D. Figgen, E. Goll, H. Stoll, M. Dolg, J. Chem. Phys., 2003, 119, 11113-11123.
Rb(ecp-28), Cs(ecp-46): T. Leininger, A. Nicklass, W. Kuechle, H. Stoll, M. Dolg, A. Bergner, Chem. Phys. Lett., 1996, 255, 274-280.
Sr(ecp-28), Ba(ecp-46): M. Kaupp, P. V. Schleyer, H. Stoll and H. Preuss, J. Chem. Phys., 1991, 94, 1360-1366.
La(ecp-46): M. Dolg, H. Stoll, A. Savin, H. Preuss, Theor. Chim. Acta, 1989, 75, 173-194.
Lu(ecp-28): X. Cao, M. Dolg, J. Chem. Phys., 2001, 115, 7348-7355.

ECP parameters for Au [Def2-ECP] have been obtained from:
TURBOMOLE (7.0.2)

================================================================================
                                        WARNINGS
                       Please study these warnings very carefully!
================================================================================


WARNING: your system is open-shell and RHF/RKS was chosen
  ===> : WILL SWITCH to UHF/UKS


INFO   : the flag for use of LIBINT has been found!

================================================================================
                                       INPUT FILE
================================================================================
NAME = Au04C2_H_A.in
|  1> #
|  2> # Au04C2_H_A TPSSh-D3BJ/Def2-TZVPPD
|  3> #
|  4> ! tpssh d3bj def2-tzvppd def2/jk grid4 nofinalgrid
|  5> 
|  6> *xyz 2 2
|  7> Au       0.000000    0.000000    1.750714 
|  8> Au      -0.000000    1.549973   -0.597614 
|  9> Au       1.342316   -0.774986   -0.597614 
| 10> Au      -1.342316   -0.774986   -0.597614 
| 11> H        0.000000    0.000000    3.328141 
| 12> *
| 13> 
| 14> %maxcore 5000
| 15> 
| 16> %pal
| 17> nprocs = 24
| 18> end
| 19> 
| 20> 
| 21>                          ****END OF INPUT****
================================================================================

                       ****************************
                       * Single Point Calculation *
                       ****************************

---------------------------------
CARTESIAN COORDINATES (ANGSTROEM)
---------------------------------
  Au     0.000000    0.000000    1.750714
  Au    -0.000000    1.549973   -0.597614
  Au     1.342316   -0.774986   -0.597614
  Au    -1.342316   -0.774986   -0.597614
  H      0.000000    0.000000    3.328141

----------------------------
CARTESIAN COORDINATES (A.U.)
----------------------------
  NO LB      ZA    FRAG     MASS         X           Y           Z
   0 Au   19.0000*   0   196.966    0.000000    0.000000    3.308370
   1 Au   19.0000*   0   196.966   -0.000000    2.929024   -1.129327
   2 Au   19.0000*   0   196.966    2.536610   -1.464511   -1.129327
   3 Au   19.0000*   0   196.966   -2.536610   -1.464511   -1.129327
   4 H     1.0000    0     1.008    0.000000    0.000000    6.289275
* core charge reduced due to ECP

--------------------------------
INTERNAL COORDINATES (ANGSTROEM)
--------------------------------
 Au     0   0   0     0.000000000000     0.00000000     0.00000000
 Au     1   0   0     2.813727189390     0.00000000     0.00000000
 Au     2   1   0     2.684631556757    61.50645655     0.00000000
 Au     2   1   3     2.684631556757    61.50645655    69.34876521
 H      1   2   3     1.577427000000   146.57388835   145.32561739

---------------------------
INTERNAL COORDINATES (A.U.)
---------------------------
 Au     0   0   0     0.000000000000     0.00000000     0.00000000
 Au     1   0   0     5.317173803515     0.00000000     0.00000000
 Au     2   1   0     5.073218412754    61.50645655     0.00000000
 Au     2   1   3     5.073218412754    61.50645655    69.34876521
 H      1   2   3     2.980905026253   146.57388835   145.32561739

---------------------
BASIS SET INFORMATION
---------------------
There are 2 groups of distinct atoms

 Group   1 Type Au  : 8s8p6d2f1g contracted to 6s5p3d2f1g pattern {311111/41111/411/11/1}
 Group   2 Type H   : 5s3p1d contracted to 3s3p1d pattern {311/111/1}

Atom   0Au   basis set group =>   1
Atom   1Au   basis set group =>   1
Atom   2Au   basis set group =>   1
Atom   3Au   basis set group =>   1
Atom   4H    basis set group =>   2
----------------------------------
AUXILIARY/JK BASIS SET INFORMATION
----------------------------------
There are 2 groups of distinct atoms

 Group   1 Type Au  : 13s12p11d9f5g3h2i contracted to 13s11p10d8f4g3h2i pattern {1111111111111/21111111111/2111111111/21111111/2111/111/11}
 Group   2 Type H   : 4s2p2d contracted to 2s2p2d pattern {31/11/11}

Atom   0Au   basis set group =>   1
Atom   1Au   basis set group =>   1
Atom   2Au   basis set group =>   1
Atom   3Au   basis set group =>   1
Atom   4H    basis set group =>   2
-------------------------
ECP PARAMETER INFORMATION
-------------------------

 Group 1, Type Au ECP Def2-ECP (replacing 60 core electrons, lmax=3)

Atom   0Au   ECP group =>   1
Atom   1Au   ECP group =>   1
Atom   2Au   ECP group =>   1
Atom   3Au   ECP group =>   1



           ************************************************************
           *        Program running with 24 parallel MPI-processes    *
           *              working on a common directory               *
           ************************************************************
------------------------------------------------------------------------------
                           ORCA GTO INTEGRAL CALCULATION
------------------------------------------------------------------------------

                         BASIS SET STATISTICS AND STARTUP INFO

 # of primitive gaussian shells          ...  109
 # of primitive gaussian functions       ...  359
 # of contracted shells                  ...   75
 # of contracted basis functions         ...  253
 Highest angular momentum                ...    4
 Maximum contraction depth               ...    4
 Integral package used                   ... LIBINT
 Integral threshhold            Thresh   ...  1.000e-10
 Primitive cut-off              TCut     ...  1.000e-11


------------------------------ INTEGRAL EVALUATION ----------------------------


 * One electron integrals 

   ECP integrals                         ... done
 Pre-screening matrix                    ... done
 Shell pair data                         ... done (   0.001 sec)



           ************************************************************
           *        Program running with 24 parallel MPI-processes    *
           *              working on a common directory               *
           ************************************************************
-------------------------------------------------------------------------------
                                 ORCA SCF
-------------------------------------------------------------------------------

------------
SCF SETTINGS
------------
Hamiltonian:
 Density Functional     Method          .... DFT(GTOs)
 Exchange Functional    Exchange        .... TPSS
 Correlation Functional Correlation     .... TPSS
 LDA part of GGA corr.  LDAOpt          .... PW91-LDA
 Gradients option       PostSCFGGA      .... off
 Hybrid DFT is turned on
   Fraction HF Exchange ScalHFX         ....  0.100000
   Scaling of DF-GGA-X  ScalDFX         ....  0.900000
   Scaling of DF-GGA-C  ScalDFC         ....  1.000000
   Scaling of DF-LDA-C  ScalLDAC        ....  1.000000
   Perturbative correction              ....  0.000000
   Density functional embedding theory  .... OFF
   NL short-range parameter             ....  5.200000


General Settings:
 Integral files         IntName         .... Au04C2_H_A
 Hartree-Fock type      HFTyp           .... UHF
 Total Charge           Charge          ....    2
 Multiplicity           Mult            ....    2
 Number of Electrons    NEL             ....   75
 Basis Dimension        Dim             ....  253
 Nuclear Repulsion      ENuc            ....    430.6740214821 Eh

Convergence Acceleration:
 DIIS                   CNVDIIS         .... on
   Start iteration      DIISMaxIt       ....    12
   Startup error        DIISStart       ....  0.200000
   # of expansion vecs  DIISMaxEq       ....     5
   Bias factor          DIISBfac        ....   1.050
   Max. coefficient     DIISMaxC        ....  10.000
 Newton-Raphson         CNVNR           .... off
 SOSCF                  CNVSOSCF        .... off
 Level Shifting         CNVShift        .... on
   Level shift para.    LevelShift      ....    0.2500
   Turn off err/grad.   ShiftErr        ....    0.0010
 Zerner damping         CNVZerner       .... off
 Static damping         CNVDamp         .... on
   Fraction old density DampFac         ....    0.7000
   Max. Damping (<1)    DampMax         ....    0.9800
   Min. Damping (>=0)   DampMin         ....    0.0000
   Turn off err/grad.   DampErr         ....    0.1000
 Fernandez-Rico         CNVRico         .... off

SCF Procedure:
 Maximum # iterations   MaxIter         ....   125
 SCF integral mode      SCFMode         .... Direct
   Integral package                     .... LIBINT
 Reset frequency        DirectResetFreq ....    20
 Integral Threshold     Thresh          ....  1.000e-10 Eh
 Primitive CutOff       TCut            ....  1.000e-11 Eh

Convergence Tolerance:
 Convergence Check Mode ConvCheckMode   .... Total+1el-Energy
 Convergence forced     ConvForced      .... 0
 Energy Change          TolE            ....  1.000e-06 Eh
 1-El. energy change                    ....  1.000e-03 Eh
 DIIS Error             TolErr          ....  1.000e-06


Diagonalization of the overlap matrix:
Smallest eigenvalue                        ... 9.340e-04
Time for diagonalization                   ...    0.012 sec
Threshold for overlap eigenvalues          ... 1.000e-08
Number of eigenvalues below threshold      ... 0
Time for construction of square roots      ...    0.008 sec
Total time needed                          ...    0.021 sec

-------------------
DFT GRID GENERATION
-------------------

General Integration Accuracy     IntAcc      ...  4.670
Radial Grid Type                 RadialGrid  ... Gauss-Chebyshev
Angular Grid (max. acc.)         AngularGrid ... Lebedev-302
Angular grid pruning method      GridPruning ... 3 (G Style)
Weight generation scheme         WeightScheme... Becke
Basis function cutoff            BFCut       ...    1.0000e-10
Integration weight cutoff        WCut        ...    1.0000e-14
Grids for H and He will be reduced by one unit

# of grid points (after initial pruning)     ...  50002 (   0.0 sec)
# of grid points (after weights+screening)   ...  49209 (   0.0 sec)
nearest neighbour list constructed           ...    0.0 sec
Grid point re-assignment to atoms done       ...    0.0 sec
Grid point division into batches done        ...    0.4 sec
Reduced shell lists constructed in    0.4 sec

Total number of grid points                  ...    49209
Total number of batches                      ...      771
Average number of points per batch           ...       63
Average number of grid points per atom       ...     9842
Average number of shells per batch           ...    50.76 (67.69%)
Average number of basis functions per batch  ...   179.76 (71.05%)
Average number of large shells per batch     ...    41.06 (80.88%)
Average number of large basis fcns per batch ...   139.76 (77.75%)
Maximum spatial batch extension              ...   6.29,  6.99,  2.88 au
Average spatial batch extension              ...   0.12,  0.12,  0.09 au

Time for grid setup =    0.437 sec

------------------------------
INITIAL GUESS: MODEL POTENTIAL
------------------------------
Loading Hartree-Fock densities                     ... done
  calling /sw/apps/orca/orca_4_2_0_linux_x86-64_openmpi314/orca Au04C2_H_A_atom79.inp > Au04C2_H_A_atom79.out in order to generate an atomic fitting density for atom 0 (Au with ECP) on-the-fly... 
    atom 0 (Au), assumed electronic state with S=2: 1s2 2s2 2p6 3s2 3p6 4s2 3d10 4p6 5s2 4d10 5p6 6s1 4f14 5d10           ... done
Calculating cut-offs                               ... done
Setting up the integral package                    ... done
Initializing the effective Hamiltonian             ... done
Starting the Coulomb interaction                   ... done (   0.0 sec)
Reading the grid                                   ... done
Mapping shells                                     ... done
Starting the XC term evaluation                    ... done (   0.0 sec)
  promolecular density results
     # of electrons  =    317.008697493
     EX              =  -1463.558686652
     EC              =    -19.353623885
     EX+EC           =  -1482.912310537
Transforming the Hamiltonian                       ... done (   0.0 sec)
Diagonalizing the Hamiltonian                      ... done (   0.0 sec)
Back transforming the eigenvectors                 ... done (   0.0 sec)
Now organizing SCF variables                       ... done
                      ------------------
                      INITIAL GUESS DONE (   1.5 sec)
                      ------------------
--------------
SCF ITERATIONS
--------------
ITER       Energy         Delta-E        Max-DP      RMS-DP      [F,P]     Damp
               ***  Starting incremental Fock matrix formation  ***
  0   -542.3936254406   0.000000000000 0.11104060  0.00125248  0.5841735 0.7000
  1   -542.5108847401  -0.117259299483 0.07875710  0.00086084  0.4039935 0.7000
  2   -542.5673400027  -0.056455262623 0.05264882  0.00056383  0.2789521 0.7000
                               ***Turning on DIIS***
  3   -542.6067146445  -0.039374641820 0.03650355  0.00038906  0.1938561 0.7000
  4   -542.6349773558  -0.028262711307 0.02708499  0.00027478  0.1352858 0.7000
  5   -542.6547824396  -0.019805083848 0.06405799  0.00065671  0.0947012 0.0000
  6   -542.7011692839  -0.046386844253 0.00591789  0.00004024  0.0020113 0.0000
  7   -542.7012829650  -0.000113681094 0.00337619  0.00002488  0.0014207 0.0000
  8   -542.7013392059  -0.000056240857 0.00473795  0.00002958  0.0010883 0.0000
  9   -542.7013811556  -0.000041949787 0.00206818  0.00001589  0.0013504 0.0000
 10   -542.7013994593  -0.000018303645 0.00367567  0.00002859  0.0005159 0.0000
 11   -542.7014118759  -0.000012416642 0.00024262  0.00000328  0.0002002 0.0000
 12   -542.7014120875  -0.000000211618 0.00012024  0.00000144  0.0001131 0.0000
                 **** Energy Check signals convergence ****

               *****************************************************
               *                     SUCCESS                       *
               *           SCF CONVERGED AFTER  13 CYCLES          *
               *****************************************************


----------------
TOTAL SCF ENERGY
----------------

Total Energy       :         -542.70141219 Eh          -14767.65620 eV

Components:
Nuclear Repulsion  :          430.67402148 Eh           11719.23592 eV
Electronic Energy  :         -973.37543367 Eh          -26486.89212 eV
One Electron Energy:        -1785.32134423 Eh          -48581.06359 eV
Two Electron Energy:          811.94591056 Eh           22094.17147 eV

Virial components:
Potential Energy   :         -726.34127497 Eh          -19764.75091 eV
Kinetic Energy     :          183.63986278 Eh            4997.09471 eV
Virial Ratio       :            3.95524841


DFT components:
N(Alpha)           :       37.999993123795 electrons
N(Beta)            :       36.999992662644 electrons
N(Total)           :       74.999985786439 electrons
E(X)               :      -43.091659493976 Eh       
E(C)               :       -3.236502920072 Eh       
E(XC)              :      -46.328162414048 Eh       
DFET-embed. en.    :        0.000000000000 Eh       

---------------
SCF CONVERGENCE
---------------

  Last Energy change         ...   -1.0233e-07  Tolerance :   1.0000e-06
  Last MAX-Density change    ...    7.7952e-05  Tolerance :   1.0000e-05
  Last RMS-Density change    ...    5.3860e-07  Tolerance :   1.0000e-06
  Last DIIS Error            ...    6.7460e-05  Tolerance :   1.0000e-06

             **** THE GBW FILE WAS UPDATED (Au04C2_H_A.gbw) ****
             **** DENSITY FILE WAS UPDATED (Au04C2_H_A.scfp) ****
             **** ENERGY FILE WAS UPDATED (Au04C2_H_A.en.tmp) ****
----------------------
UHF SPIN CONTAMINATION
----------------------

Warning: in a DFT calculation there is little theoretical justification to 
         calculate <S**2> as in Hartree-Fock theory. We will do it anyways
         but you should keep in mind that the values have only limited relevance

Expectation value of <S**2>     :     0.756506
Ideal value S*(S+1) for S=0.5   :     0.750000
Deviation                       :     0.006506

             **** THE GBW FILE WAS UPDATED (Au04C2_H_A.gbw) ****
             **** DENSITY FILE WAS UPDATED (Au04C2_H_A.scfp) ****
----------------
ORBITAL ENERGIES
----------------
                 SPIN UP ORBITALS
  NO   OCC          E(Eh)            E(eV) 
   0   1.0000      -4.515095      -122.8620 
   1   1.0000      -4.482628      -121.9785 
   2   1.0000      -4.482274      -121.9689 
   3   1.0000      -4.482272      -121.9688 
   4   1.0000      -2.719305       -73.9961 
   5   1.0000      -2.696766       -73.3827 
   6   1.0000      -2.696764       -73.3827 
   7   1.0000      -2.682998       -73.0081 
   8   1.0000      -2.677714       -72.8643 
   9   1.0000      -2.677710       -72.8642 
  10   1.0000      -2.671823       -72.7040 
  11   1.0000      -2.671813       -72.7037 
  12   1.0000      -2.671573       -72.6972 
  13   1.0000      -2.670417       -72.6657 
  14   1.0000      -2.670417       -72.6657 
  15   1.0000      -2.669650       -72.6449 
  16   1.0000      -0.823784       -22.4163 
  17   1.0000      -0.755065       -20.5464 
  18   1.0000      -0.737682       -20.0734 
  19   1.0000      -0.737679       -20.0733 
  20   1.0000      -0.720742       -19.6124 
  21   1.0000      -0.719259       -19.5720 
  22   1.0000      -0.719258       -19.5720 
  23   1.0000      -0.700425       -19.0595 
  24   1.0000      -0.700420       -19.0594 
  25   1.0000      -0.694080       -18.8869 
  26   1.0000      -0.682455       -18.5706 
  27   1.0000      -0.673130       -18.3168 
  28   1.0000      -0.673129       -18.3168 
  29   1.0000      -0.657981       -17.9046 
  30   1.0000      -0.657979       -17.9045 
  31   1.0000      -0.655919       -17.8485 
  32   1.0000      -0.655529       -17.8379 
  33   1.0000      -0.655525       -17.8378 
  34   1.0000      -0.643250       -17.5037 
  35   1.0000      -0.643246       -17.5036 
  36   1.0000      -0.627461       -17.0741 
  37   1.0000      -0.621146       -16.9022 
  38   0.0000      -0.498562       -13.5666 
  39   0.0000      -0.498561       -13.5665 
  40   0.0000      -0.435321       -11.8457 
  41   0.0000      -0.346737        -9.4352 
  42   0.0000      -0.346736        -9.4352 
  43   0.0000      -0.346445        -9.4272 
  44   0.0000      -0.324304        -8.8248 
  45   0.0000      -0.324302        -8.8247 
  46   0.0000      -0.247119        -6.7245 
  47   0.0000      -0.205414        -5.5896 
  48   0.0000      -0.205414        -5.5896 
  49   0.0000      -0.192269        -5.2319 
  50   0.0000      -0.192267        -5.2318 
  51   0.0000      -0.187181        -5.0935 
  52   0.0000      -0.185568        -5.0496 
  53   0.0000      -0.140274        -3.8170 
  54   0.0000      -0.109346        -2.9754 
  55   0.0000      -0.106135        -2.8881 
  56   0.0000      -0.105753        -2.8777 
  57   0.0000      -0.105752        -2.8777 
  58   0.0000      -0.100501        -2.7348 
  59   0.0000      -0.100498        -2.7347 
  60   0.0000      -0.065871        -1.7924 
  61   0.0000      -0.065865        -1.7923 
  62   0.0000      -0.056045        -1.5251 
  63   0.0000      -0.051822        -1.4102 
  64   0.0000      -0.051822        -1.4101 
  65   0.0000      -0.025896        -0.7047 
  66   0.0000      -0.025892        -0.7046 
  67   0.0000      -0.023526        -0.6402 
  68   0.0000      -0.010798        -0.2938 
  69   0.0000      -0.010790        -0.2936 
  70   0.0000      -0.008629        -0.2348 
  71   0.0000       0.033680         0.9165 
  72   0.0000       0.035662         0.9704 
  73   0.0000       0.035662         0.9704 
  74   0.0000       0.064328         1.7505 
  75   0.0000       0.064336         1.7507 
  76   0.0000       0.078775         2.1436 
  77   0.0000       0.104377         2.8402 
  78   0.0000       0.104380         2.8403 
  79   0.0000       0.107055         2.9131 
  80   0.0000       0.141562         3.8521 
  81   0.0000       0.161154         4.3852 
  82   0.0000       0.161158         4.3853 
  83   0.0000       0.165842         4.5128 
  84   0.0000       0.196515         5.3474 
  85   0.0000       0.196517         5.3475 
  86   0.0000       0.200679         5.4608 
  87   0.0000       0.218231         5.9384 
  88   0.0000       0.218239         5.9386 
  89   0.0000       0.232321         6.3218 
  90   0.0000       0.233326         6.3491 
  91   0.0000       0.233327         6.3492 
  92   0.0000       0.265150         7.2151 
  93   0.0000       0.484742        13.1905 
  94   0.0000       0.484746        13.1906 
  95   0.0000       0.492093        13.3905 
  96   0.0000       0.548451        14.9241 
  97   0.0000       0.548454        14.9242 
  98   0.0000       0.579609        15.7720 
  99   0.0000       0.597855        16.2685 
 100   0.0000       0.597858        16.2685 
 101   0.0000       0.636387        17.3170 
 102   0.0000       0.650966        17.7137 
 103   0.0000       0.650968        17.7137 
 104   0.0000       0.656070        17.8526 
 105   0.0000       0.680199        18.5092 
 106   0.0000       0.694044        18.8859 
 107   0.0000       0.694047        18.8860 
 108   0.0000       0.726589        19.7715 
 109   0.0000       0.735465        20.0130 
 110   0.0000       0.735466        20.0130 
 111   0.0000       0.762096        20.7377 
 112   0.0000       0.762097        20.7377 
 113   0.0000       0.774098        21.0643 
 114   0.0000       0.796921        21.6853 
 115   0.0000       0.807015        21.9600 
 116   0.0000       0.807015        21.9600 
 117   0.0000       0.818239        22.2654 
 118   0.0000       0.855782        23.2870 
 119   0.0000       0.857803        23.3420 
 120   0.0000       0.857808        23.3421 
 121   0.0000       0.900204        24.4958 
 122   0.0000       0.900209        24.4959 
 123   0.0000       0.920418        25.0459 
 124   0.0000       0.932473        25.3739 
 125   0.0000       0.932484        25.3742 
 126   0.0000       0.968450        26.3529 
 127   0.0000       0.980663        26.6852 
 128   0.0000       0.980678        26.6856 
 129   0.0000       1.007564        27.4172 
 130   0.0000       1.007577        27.4176 
 131   0.0000       1.055075        28.7101 
 132   0.0000       1.065780        29.0013 
 133   0.0000       1.069361        29.0988 
 134   0.0000       1.069362        29.0988 
 135   0.0000       1.092842        29.7377 
 136   0.0000       1.102318        29.9956 
 137   0.0000       1.102319        29.9956 
 138   0.0000       1.137663        30.9574 
 139   0.0000       1.137679        30.9578 
 140   0.0000       1.140832        31.0436 
 141   0.0000       1.154637        31.4193 
 142   0.0000       1.154640        31.4194 
 143   0.0000       1.177717        32.0473 
 144   0.0000       1.215928        33.0871 
 145   0.0000       1.215945        33.0875 
 146   0.0000       1.217482        33.1294 
 147   0.0000       1.249765        34.0078 
 148   0.0000       1.249771        34.0080 
 149   0.0000       1.296812        35.2881 
 150   0.0000       1.382528        37.6205 
 151   0.0000       1.382539        37.6208 
 152   0.0000       1.508396        41.0455 
 153   0.0000       1.508419        41.0462 
 154   0.0000       1.597363        43.4665 
 155   0.0000       1.644046        44.7368 
 156   0.0000       1.865310        50.7577 
 157   0.0000       2.277050        61.9617 
 158   0.0000       2.349212        63.9253 
 159   0.0000       2.349244        63.9262 
 160   0.0000       2.483959        67.5920 
 161   0.0000       2.813421        76.5571 
 162   0.0000       2.813505        76.5594 
 163   0.0000       2.955308        80.4180 
 164   0.0000       2.955625        80.4266 
 165   0.0000       3.023979        82.2867 
 166   0.0000       3.052915        83.0741 
 167   0.0000       3.056349        83.1675 
 168   0.0000       3.056360        83.1678 
 169   0.0000       3.137941        85.3877 
 170   0.0000       3.146884        85.6311 
 171   0.0000       3.146885        85.6311 
 172   0.0000       3.152215        85.7761 
 173   0.0000       3.190057        86.8059 
 174   0.0000       3.190121        86.8076 
 175   0.0000       3.191683        86.8501 
 176   0.0000       3.207457        87.2793 
 177   0.0000       3.207464        87.2795 
 178   0.0000       3.236922        88.0811 
 179   0.0000       3.252720        88.5110 
 180   0.0000       3.356255        91.3283 
 181   0.0000       3.362611        91.5013 
 182   0.0000       3.362745        91.5049 
 183   0.0000       3.375854        91.8617 
 184   0.0000       3.376010        91.8659 
 185   0.0000       3.380698        91.9935 
 186   0.0000       3.381689        92.0204 
 187   0.0000       3.382163        92.0333 
 188   0.0000       3.456540        94.0572 
 189   0.0000       3.470062        94.4252 
 190   0.0000       3.470278        94.4311 
 191   0.0000       3.553576        96.6977 
 192   0.0000       3.576449        97.3201 
 193   0.0000       3.576551        97.3229 
 194   0.0000       3.641173        99.0814 
 195   0.0000       3.641277        99.0842 
 196   0.0000       3.703018       100.7642 
 197   0.0000       3.703045       100.7650 
 198   0.0000       3.706086       100.8477 
 199   0.0000       3.709019       100.9276 
 200   0.0000       3.711230       100.9877 
 201   0.0000       3.711585       100.9974 
 202   0.0000       3.713435       101.0477 
 203   0.0000       3.714499       101.0767 
 204   0.0000       3.714889       101.0873 
 205   0.0000       3.717337       101.1539 
 206   0.0000       3.721852       101.2767 
 207   0.0000       3.722065       101.2825 
 208   0.0000       3.722814       101.3029 
 209   0.0000       3.723494       101.3214 
 210   0.0000       3.723546       101.3228 
 211   0.0000       3.723975       101.3345 
 212   0.0000       3.727253       101.4237 
 213   0.0000       3.728009       101.4443 
 214   0.0000       3.728540       101.4587 
 215   0.0000       3.728895       101.4684 
 216   0.0000       3.739404       101.7544 
 217   0.0000       3.739572       101.7589 
 218   0.0000       3.745857       101.9300 
 219   0.0000       3.754387       102.1621 
 220   0.0000       3.754449       102.1638 
 221   0.0000       3.756272       102.2134 
 222   0.0000       3.756285       102.2137 
 223   0.0000       3.776920       102.7752 
 224   0.0000       3.790988       103.1580 
 225   0.0000       3.791048       103.1597 
 226   0.0000       3.879252       105.5598 
 227   0.0000       3.879360       105.5628 
 228   0.0000       3.946300       107.3843 
 229   0.0000       4.186375       113.9171 
 230   0.0000       4.318492       117.5121 
 231   0.0000       4.319144       117.5299 
 232   0.0000       5.212276       141.8332 
 233   0.0000      27.130044       738.2460 
 234   0.0000      27.130114       738.2479 
 235   0.0000      27.268124       742.0034 
 236   0.0000      27.268124       742.0034 
 237   0.0000      27.474344       747.6149 
 238   0.0000      28.249733       768.7143 
 239   0.0000      28.249783       768.7157 
 240   0.0000      28.448165       774.1139 
 241   0.0000      28.739857       782.0513 
 242   0.0000      29.343609       798.4802 
 243   0.0000      29.343622       798.4805 
 244   0.0000      32.028720       871.5458 
 245   0.0000      43.686723      1188.7762 
 246   0.0000      44.179838      1202.1945 
 247   0.0000      44.179844      1202.1947 
 248   0.0000      44.187060      1202.3910 
 249   0.0000     204.750966      5571.5570 
 250   0.0000     204.957577      5577.1792 
 251   0.0000     204.969255      5577.4970 
 252   0.0000     204.969257      5577.4970 

                 SPIN DOWN ORBITALS
  NO   OCC          E(Eh)            E(eV) 
   0   1.0000      -4.508621      -122.6858 
   1   1.0000      -4.482170      -121.9660 
   2   1.0000      -4.481817      -121.9564 
   3   1.0000      -4.481815      -121.9564 
   4   1.0000      -2.705868       -73.6304 
   5   1.0000      -2.692868       -73.2767 
   6   1.0000      -2.692868       -73.2767 
   7   1.0000      -2.682266       -72.9882 
   8   1.0000      -2.677081       -72.8471 
   9   1.0000      -2.677077       -72.8470 
  10   1.0000      -2.671605       -72.6981 
  11   1.0000      -2.671594       -72.6978 
  12   1.0000      -2.670770       -72.6753 
  13   1.0000      -2.669718       -72.6467 
  14   1.0000      -2.669717       -72.6467 
  15   1.0000      -2.669566       -72.6426 
  16   1.0000      -0.806807       -21.9543 
  17   1.0000      -0.746942       -20.3253 
  18   1.0000      -0.735603       -20.0168 
  19   1.0000      -0.735601       -20.0167 
  20   1.0000      -0.717074       -19.5126 
  21   1.0000      -0.717072       -19.5125 
  22   1.0000      -0.708841       -19.2886 
  23   1.0000      -0.692349       -18.8398 
  24   1.0000      -0.692345       -18.8397 
  25   1.0000      -0.692043       -18.8314 
  26   1.0000      -0.672903       -18.3106 
  27   1.0000      -0.667413       -18.1612 
  28   1.0000      -0.667410       -18.1611 
  29   1.0000      -0.657459       -17.8904 
  30   1.0000      -0.657457       -17.8903 
  31   1.0000      -0.654965       -17.8225 
  32   1.0000      -0.654725       -17.8160 
  33   1.0000      -0.654721       -17.8159 
  34   1.0000      -0.639231       -17.3944 
  35   1.0000      -0.639227       -17.3942 
  36   1.0000      -0.627663       -17.0796 
  37   0.0000      -0.559747       -15.2315 
  38   0.0000      -0.497148       -13.5281 
  39   0.0000      -0.497147       -13.5281 
  40   0.0000      -0.419775       -11.4227 
  41   0.0000      -0.345212        -9.3937 
  42   0.0000      -0.340197        -9.2572 
  43   0.0000      -0.340194        -9.2572 
  44   0.0000      -0.319260        -8.6875 
  45   0.0000      -0.319259        -8.6875 
  46   0.0000      -0.232538        -6.3277 
  47   0.0000      -0.198100        -5.3906 
  48   0.0000      -0.198099        -5.3905 
  49   0.0000      -0.190963        -5.1964 
  50   0.0000      -0.190961        -5.1963 
  51   0.0000      -0.186813        -5.0834 
  52   0.0000      -0.173626        -4.7246 
  53   0.0000      -0.131464        -3.5773 
  54   0.0000      -0.108334        -2.9479 
  55   0.0000      -0.101524        -2.7626 
  56   0.0000      -0.101521        -2.7625 
  57   0.0000      -0.100120        -2.7244 
  58   0.0000      -0.098116        -2.6699 
  59   0.0000      -0.098115        -2.6699 
  60   0.0000      -0.058934        -1.6037 
  61   0.0000      -0.058930        -1.6036 
  62   0.0000      -0.052389        -1.4256 
  63   0.0000      -0.046020        -1.2523 
  64   0.0000      -0.046019        -1.2522 
  65   0.0000      -0.019169        -0.5216 
  66   0.0000      -0.018025        -0.4905 
  67   0.0000      -0.018021        -0.4904 
  68   0.0000      -0.008619        -0.2345 
  69   0.0000      -0.008612        -0.2343 
  70   0.0000      -0.008009        -0.2179 
  71   0.0000       0.038359         1.0438 
  72   0.0000       0.038360         1.0438 
  73   0.0000       0.041925         1.1408 
  74   0.0000       0.070346         1.9142 
  75   0.0000       0.070350         1.9143 
  76   0.0000       0.079593         2.1658 
  77   0.0000       0.108502         2.9525 
  78   0.0000       0.108504         2.9525 
  79   0.0000       0.126129         3.4321 
  80   0.0000       0.145994         3.9727 
  81   0.0000       0.163097         4.4381 
  82   0.0000       0.163100         4.4382 
  83   0.0000       0.174507         4.7486 
  84   0.0000       0.199685         5.4337 
  85   0.0000       0.199687         5.4337 
  86   0.0000       0.209136         5.6909 
  87   0.0000       0.220130         5.9900 
  88   0.0000       0.220139         5.9903 
  89   0.0000       0.233264         6.3474 
  90   0.0000       0.245577         6.6825 
  91   0.0000       0.245577         6.6825 
  92   0.0000       0.276459         7.5228 
  93   0.0000       0.493586        13.4311 
  94   0.0000       0.496629        13.5140 
  95   0.0000       0.496634        13.5141 
  96   0.0000       0.552012        15.0210 
  97   0.0000       0.552014        15.0211 
  98   0.0000       0.583821        15.8866 
  99   0.0000       0.604760        16.4563 
 100   0.0000       0.604763        16.4564 
 101   0.0000       0.646967        17.6049 
 102   0.0000       0.656868        17.8743 
 103   0.0000       0.656870        17.8743 
 104   0.0000       0.666591        18.1389 
 105   0.0000       0.691642        18.8205 
 106   0.0000       0.700337        19.0571 
 107   0.0000       0.700337        19.0571 
 108   0.0000       0.735103        20.0032 
 109   0.0000       0.739950        20.1351 
 110   0.0000       0.739954        20.1352 
 111   0.0000       0.766293        20.8519 
 112   0.0000       0.766293        20.8519 
 113   0.0000       0.789036        21.4708 
 114   0.0000       0.804446        21.8901 
 115   0.0000       0.808262        21.9939 
 116   0.0000       0.808263        21.9940 
 117   0.0000       0.819797        22.3078 
 118   0.0000       0.864689        23.5294 
 119   0.0000       0.864694        23.5295 
 120   0.0000       0.864913        23.5355 
 121   0.0000       0.903093        24.5744 
 122   0.0000       0.903100        24.5746 
 123   0.0000       0.922986        25.1157 
 124   0.0000       0.940244        25.5853 
 125   0.0000       0.940254        25.5856 
 126   0.0000       0.972982        26.4762 
 127   0.0000       0.983267        26.7561 
 128   0.0000       0.983280        26.7564 
 129   0.0000       1.011443        27.5228 
 130   0.0000       1.011456        27.5231 
 131   0.0000       1.062401        28.9094 
 132   0.0000       1.066389        29.0179 
 133   0.0000       1.072650        29.1883 
 134   0.0000       1.072650        29.1883 
 135   0.0000       1.094822        29.7916 
 136   0.0000       1.108213        30.1560 
 137   0.0000       1.108214        30.1560 
 138   0.0000       1.139000        30.9938 
 139   0.0000       1.139020        30.9943 
 140   0.0000       1.148453        31.2510 
 141   0.0000       1.160653        31.5830 
 142   0.0000       1.160656        31.5831 
 143   0.0000       1.178960        32.0811 
 144   0.0000       1.217192        33.1215 
 145   0.0000       1.217212        33.1220 
 146   0.0000       1.226579        33.3769 
 147   0.0000       1.257595        34.2209 
 148   0.0000       1.257599        34.2210 
 149   0.0000       1.299880        35.3715 
 150   0.0000       1.385749        37.7082 
 151   0.0000       1.385759        37.7084 
 152   0.0000       1.512027        41.1444 
 153   0.0000       1.512047        41.1449 
 154   0.0000       1.598001        43.4838 
 155   0.0000       1.663700        45.2716 
 156   0.0000       1.870865        50.9088 
 157   0.0000       2.293836        62.4184 
 158   0.0000       2.350736        63.9668 
 159   0.0000       2.350768        63.9677 
 160   0.0000       2.511519        68.3419 
 161   0.0000       2.836250        77.1783 
 162   0.0000       2.836317        77.1801 
 163   0.0000       2.978716        81.0550 
 164   0.0000       2.979045        81.0639 
 165   0.0000       3.025456        82.3268 
 166   0.0000       3.058163        83.2168 
 167   0.0000       3.058888        83.2366 
 168   0.0000       3.058893        83.2367 
 169   0.0000       3.144597        85.5688 
 170   0.0000       3.148614        85.6781 
 171   0.0000       3.148615        85.6782 
 172   0.0000       3.159662        85.9788 
 173   0.0000       3.193161        86.8903 
 174   0.0000       3.193226        86.8921 
 175   0.0000       3.194372        86.9233 
 176   0.0000       3.208235        87.3005 
 177   0.0000       3.208247        87.3008 
 178   0.0000       3.239544        88.1525 
 179   0.0000       3.260169        88.7137 
 180   0.0000       3.357315        91.3572 
 181   0.0000       3.366285        91.6013 
 182   0.0000       3.366407        91.6046 
 183   0.0000       3.377467        91.9055 
 184   0.0000       3.377607        91.9093 
 185   0.0000       3.383784        92.0775 
 186   0.0000       3.384227        92.0895 
 187   0.0000       3.387897        92.1894 
 188   0.0000       3.465584        94.3033 
 189   0.0000       3.472191        94.4831 
 190   0.0000       3.472415        94.4892 
 191   0.0000       3.554393        96.7200 
 192   0.0000       3.586421        97.5915 
 193   0.0000       3.586552        97.5950 
 194   0.0000       3.657788        99.5335 
 195   0.0000       3.657848        99.5351 
 196   0.0000       3.711615       100.9982 
 197   0.0000       3.711707       101.0007 
 198   0.0000       3.712045       101.0099 
 199   0.0000       3.712639       101.0261 
 200   0.0000       3.714076       101.0651 
 201   0.0000       3.714976       101.0896 
 202   0.0000       3.715374       101.1005 
 203   0.0000       3.717275       101.1522 
 204   0.0000       3.717362       101.1546 
 205   0.0000       3.719141       101.2030 
 206   0.0000       3.722753       101.3013 
 207   0.0000       3.722980       101.3074 
 208   0.0000       3.723831       101.3306 
 209   0.0000       3.724124       101.3386 
 210   0.0000       3.724206       101.3408 
 211   0.0000       3.724729       101.3550 
 212   0.0000       3.727833       101.4395 
 213   0.0000       3.729709       101.4905 
 214   0.0000       3.730152       101.5026 
 215   0.0000       3.730424       101.5100 
 216   0.0000       3.742399       101.8358 
 217   0.0000       3.742610       101.8416 
 218   0.0000       3.746713       101.9533 
 219   0.0000       3.756393       102.2167 
 220   0.0000       3.756398       102.2168 
 221   0.0000       3.757423       102.2447 
 222   0.0000       3.757531       102.2476 
 223   0.0000       3.778933       102.8300 
 224   0.0000       3.795614       103.2839 
 225   0.0000       3.795679       103.2857 
 226   0.0000       3.880334       105.5893 
 227   0.0000       3.880442       105.5922 
 228   0.0000       3.946806       107.3980 
 229   0.0000       4.202598       114.3585 
 230   0.0000       4.333988       117.9338 
 231   0.0000       4.334639       117.9515 
 232   0.0000       5.227528       142.2483 
 233   0.0000      27.130856       738.2681 
 234   0.0000      27.130926       738.2700 
 235   0.0000      27.272170       742.1135 
 236   0.0000      27.272173       742.1136 
 237   0.0000      27.475166       747.6373 
 238   0.0000      28.252549       768.7909 
 239   0.0000      28.252599       768.7923 
 240   0.0000      28.448458       774.1219 
 241   0.0000      28.740566       782.0706 
 242   0.0000      29.344079       798.4930 
 243   0.0000      29.344091       798.4933 
 244   0.0000      32.035125       871.7201 
 245   0.0000      43.687390      1188.7943 
 246   0.0000      44.180056      1202.2004 
 247   0.0000      44.180062      1202.2006 
 248   0.0000      44.189396      1202.4546 
 249   0.0000     204.751439      5571.5699 
 250   0.0000     204.959115      5577.2211 
 251   0.0000     204.969391      5577.5007 
 252   0.0000     204.969393      5577.5007 

                    ********************************
                    * MULLIKEN POPULATION ANALYSIS *
                    ********************************

--------------------------------------------
MULLIKEN ATOMIC CHARGES AND SPIN POPULATIONS
--------------------------------------------
   0 Au:    0.274435    0.557600
   1 Au:    0.501707    0.039913
   2 Au:    0.502046    0.039900
   3 Au:    0.502042    0.039897
   4 H :    0.219769    0.322690
Sum of atomic charges         :    2.0000000
Sum of atomic spin populations:    1.0000000

-----------------------------------------------------
MULLIKEN REDUCED ORBITAL CHARGES AND SPIN POPULATIONS
-----------------------------------------------------
CHARGE
  0 Aus       :     3.026235  s :     3.026235
      pz      :     2.135564  p :     6.177746
      px      :     2.021092
      py      :     2.021090
      dz2     :     1.652260  d :     9.507561
      dxz     :     1.939949
      dyz     :     1.939945
      dx2y2   :     1.987704
      dxy     :     1.987704
      f0      :     0.005877  f :     0.013667
      f+1     :     0.002151
      f-1     :     0.002151
      f+2     :     0.001487
      f-2     :     0.001487
      f+3     :     0.000255
      f-3     :     0.000259
      g0      :     0.000210  g :     0.000357
      g+1     :     0.000041
      g-1     :     0.000041
      g+2     :     0.000024
      g-2     :     0.000024
      g+3     :     0.000007
      g-3     :     0.000007
      g+4     :     0.000001
      g-4     :     0.000001
  1 Aus       :     2.629076  s :     2.629076
      pz      :     2.024978  p :     6.116776
      px      :     2.025191
      py      :     2.066607
      dz2     :     1.931336  d :     9.740869
      dxz     :     1.989047
      dyz     :     1.956598
      dx2y2   :     1.968689
      dxy     :     1.895199
      f0      :     0.001459  f :     0.011417
      f+1     :     0.000788
      f-1     :     0.001877
      f+2     :     0.000913
      f-2     :     0.001601
      f+3     :     0.002474
      f-3     :     0.002306
      g0      :     0.000011  g :     0.000154
      g+1     :     0.000006
      g-1     :     0.000023
      g+2     :     0.000014
      g-2     :     0.000018
      g+3     :     0.000017
      g-3     :     0.000006
      g+4     :     0.000027
      g-4     :     0.000031
  2 Aus       :     2.628858  s :     2.628858
      pz      :     2.024959  p :     6.116654
      px      :     2.056189
      py      :     2.035507
      dz2     :     1.931347  d :     9.740872
      dxz     :     1.964707
      dyz     :     1.980935
      dx2y2   :     1.913570
      dxy     :     1.950314
      f0      :     0.001458  f :     0.011416
      f+1     :     0.001604
      f-1     :     0.001060
      f+2     :     0.001429
      f-2     :     0.001085
      f+3     :     0.002473
      f-3     :     0.002306
      g0      :     0.000011  g :     0.000154
      g+1     :     0.000019
      g-1     :     0.000010
      g+2     :     0.000017
      g-2     :     0.000015
      g+3     :     0.000017
      g-3     :     0.000006
      g+4     :     0.000030
      g-4     :     0.000028
  3 Aus       :     2.628860  s :     2.628860
      pz      :     2.024959  p :     6.116656
      px      :     2.056190
      py      :     2.035507
      dz2     :     1.931347  d :     9.740872
      dxz     :     1.964707
      dyz     :     1.980935
      dx2y2   :     1.913570
      dxy     :     1.950314
      f0      :     0.001458  f :     0.011416
      f+1     :     0.001604
      f-1     :     0.001060
      f+2     :     0.001429
      f-2     :     0.001085
      f+3     :     0.002473
      f-3     :     0.002306
      g0      :     0.000011  g :     0.000154
      g+1     :     0.000019
      g-1     :     0.000010
      g+2     :     0.000017
      g-2     :     0.000015
      g+3     :     0.000017
      g-3     :     0.000006
      g+4     :     0.000030
      g-4     :     0.000028
  4 H s       :     0.753842  s :     0.753842
      pz      :     0.005770  p :     0.022518
      px      :     0.008375
      py      :     0.008373
      dz2     :     0.001439  d :     0.003871
      dxz     :     0.001116
      dyz     :     0.001116
      dx2y2   :     0.000100
      dxy     :     0.000100

SPIN
  0 Aus       :     0.327753  s :     0.327753
      pz      :     0.045473  p :     0.048179
      px      :     0.001353
      py      :     0.001353
      dz2     :     0.171304  d :     0.180719
      dxz     :     0.003202
      dyz     :     0.003203
      dx2y2   :     0.001505
      dxy     :     0.001505
      f0      :     0.001125  f :     0.000961
      f+1     :    -0.000043
      f-1     :    -0.000043
      f+2     :    -0.000041
      f-2     :    -0.000041
      f+3     :     0.000006
      f-3     :    -0.000001
      g0      :     0.000007  g :    -0.000012
      g+1     :    -0.000003
      g-1     :    -0.000003
      g+2     :    -0.000006
      g-2     :    -0.000006
      g+3     :    -0.000000
      g-3     :     0.000000
      g+4     :     0.000000
      g-4     :     0.000000
  1 Aus       :     0.024941  s :     0.024941
      pz      :    -0.001746  p :     0.003201
      px      :     0.000031
      py      :     0.004916
      dz2     :     0.014103  d :     0.011730
      dxz     :    -0.000407
      dyz     :    -0.002577
      dx2y2   :     0.002366
      dxy     :    -0.001754
      f0      :     0.000037  f :     0.000040
      f+1     :    -0.000015
      f-1     :    -0.000044
      f+2     :     0.000061
      f-2     :    -0.000002
      f+3     :    -0.000001
      f-3     :     0.000005
      g0      :     0.000001  g :     0.000001
      g+1     :    -0.000000
      g-1     :    -0.000001
      g+2     :     0.000001
      g-2     :    -0.000000
      g+3     :    -0.000000
      g-3     :     0.000000
      g+4     :    -0.000000
      g-4     :    -0.000000
  2 Aus       :     0.024931  s :     0.024931
      pz      :    -0.001747  p :     0.003197
      px      :     0.003692
      py      :     0.001251
      dz2     :     0.014104  d :     0.011731
      dxz     :    -0.002034
      dyz     :    -0.000950
      dx2y2   :    -0.000724
      dxy     :     0.001335
      f0      :     0.000037  f :     0.000040
      f+1     :    -0.000037
      f-1     :    -0.000022
      f+2     :     0.000013
      f-2     :     0.000045
      f+3     :    -0.000001
      f-3     :     0.000005
      g0      :     0.000001  g :     0.000001
      g+1     :    -0.000001
      g-1     :    -0.000000
      g+2     :     0.000000
      g-2     :     0.000001
      g+3     :    -0.000000
      g-3     :     0.000000
      g+4     :    -0.000000
      g-4     :    -0.000000
  3 Aus       :     0.024929  s :     0.024929
      pz      :    -0.001747  p :     0.003196
      px      :     0.003692
      py      :     0.001251
      dz2     :     0.014104  d :     0.011731
      dxz     :    -0.002034
      dyz     :    -0.000950
      dx2y2   :    -0.000724
      dxy     :     0.001335
      f0      :     0.000037  f :     0.000040
      f+1     :    -0.000037
      f-1     :    -0.000022
      f+2     :     0.000013
      f-2     :     0.000045
      f+3     :    -0.000001
      f-3     :     0.000005
      g0      :     0.000001  g :     0.000001
      g+1     :    -0.000001
      g-1     :    -0.000000
      g+2     :     0.000000
      g-2     :     0.000001
      g+3     :    -0.000000
      g-3     :     0.000000
      g+4     :    -0.000000
      g-4     :    -0.000000
  4 H s       :     0.323374  s :     0.323374
      pz      :    -0.002754  p :    -0.000461
      px      :     0.001146
      py      :     0.001146
      dz2     :    -0.000203  d :    -0.000223
      dxz     :    -0.000013
      dyz     :    -0.000014
      dx2y2   :     0.000003
      dxy     :     0.000003


                     *******************************
                     * LOEWDIN POPULATION ANALYSIS *
                     *******************************

-------------------------------------------
LOEWDIN ATOMIC CHARGES AND SPIN POPULATIONS
-------------------------------------------
   0 Au:    0.585010    0.512712
   1 Au:    0.488620    0.051615
   2 Au:    0.488618    0.051618
   3 Au:    0.488618    0.051618
   4 H :   -0.050865    0.332437

----------------------------------------------------
LOEWDIN REDUCED ORBITAL CHARGES AND SPIN POPULATIONS
----------------------------------------------------
CHARGE
  0 Aus       :     2.491716  s :     2.491716
      pz      :     2.350806  p :     6.421713
      px      :     2.035453
      py      :     2.035454
      dz2     :     1.640942  d :     9.477947
      dxz     :     1.928060
      dyz     :     1.928061
      dx2y2   :     1.990442
      dxy     :     1.990441
      f0      :     0.010522  f :     0.023229
      f+1     :     0.003899
      f-1     :     0.003899
      f+2     :     0.002093
      f-2     :     0.002093
      f+3     :     0.000362
      f-3     :     0.000361
      g0      :     0.000235  g :     0.000386
      g+1     :     0.000033
      g-1     :     0.000033
      g+2     :     0.000031
      g-2     :     0.000031
      g+3     :     0.000010
      g-3     :     0.000010
      g+4     :     0.000001
      g-4     :     0.000001
  1 Aus       :     2.422052  s :     2.422052
      pz      :     2.064692  p :     6.246899
      px      :     2.043971
      py      :     2.138236
      dz2     :     1.958717  d :     9.822948
      dxz     :     1.988393
      dyz     :     1.968012
      dx2y2   :     1.978116
      dxy     :     1.929710
      f0      :     0.001970  f :     0.019256
      f+1     :     0.001322
      f-1     :     0.004151
      f+2     :     0.001330
      f-2     :     0.002159
      f+3     :     0.005305
      f-3     :     0.003019
      g0      :     0.000017  g :     0.000225
      g+1     :     0.000009
      g-1     :     0.000032
      g+2     :     0.000023
      g-2     :     0.000028
      g+3     :     0.000023
      g-3     :     0.000007
      g+4     :     0.000035
      g-4     :     0.000052
  2 Aus       :     2.422051  s :     2.422051
      pz      :     2.064689  p :     6.246891
      px      :     2.114666
      py      :     2.067535
      dz2     :     1.958721  d :     9.822960
      dxz     :     1.973111
      dyz     :     1.983300
      dx2y2   :     1.941814
      dxy     :     1.966014
      f0      :     0.001970  f :     0.019255
      f+1     :     0.003444
      f-1     :     0.002029
      f+2     :     0.001951
      f-2     :     0.001537
      f+3     :     0.005305
      f-3     :     0.003019
      g0      :     0.000017  g :     0.000225
      g+1     :     0.000026
      g-1     :     0.000014
      g+2     :     0.000027
      g-2     :     0.000024
      g+3     :     0.000023
      g-3     :     0.000007
      g+4     :     0.000048
      g-4     :     0.000039
  3 Aus       :     2.422051  s :     2.422051
      pz      :     2.064689  p :     6.246891
      px      :     2.114666
      py      :     2.067535
      dz2     :     1.958721  d :     9.822960
      dxz     :     1.973111
      dyz     :     1.983300
      dx2y2   :     1.941814
      dxy     :     1.966014
      f0      :     0.001970  f :     0.019255
      f+1     :     0.003444
      f-1     :     0.002029
      f+2     :     0.001951
      f-2     :     0.001537
      f+3     :     0.005305
      f-3     :     0.003019
      g0      :     0.000017  g :     0.000225
      g+1     :     0.000026
      g-1     :     0.000014
      g+2     :     0.000027
      g-2     :     0.000024
      g+3     :     0.000023
      g-3     :     0.000007
      g+4     :     0.000048
      g-4     :     0.000039
  4 H s       :     0.810425  s :     0.810425
      pz      :     0.133751  p :     0.209188
      px      :     0.037720
      py      :     0.037718
      dz2     :     0.014388  d :     0.031252
      dxz     :     0.008029
      dyz     :     0.008029
      dx2y2   :     0.000403
      dxy     :     0.000403

SPIN
  0 Aus       :     0.183198  s :     0.183198
      pz      :     0.127087  p :     0.128888
      px      :     0.000900
      py      :     0.000900
      dz2     :     0.192880  d :     0.197037
      dxz     :     0.001319
      dyz     :     0.001320
      dx2y2   :     0.000759
      dxy     :     0.000759
      f0      :     0.003674  f :     0.003500
      f+1     :    -0.000063
      f-1     :    -0.000063
      f+2     :    -0.000038
      f-2     :    -0.000038
      f+3     :     0.000003
      f-3     :     0.000023
      g0      :     0.000100  g :     0.000089
      g+1     :    -0.000000
      g-1     :    -0.000000
      g+2     :    -0.000005
      g-2     :    -0.000005
      g+3     :    -0.000000
      g-3     :     0.000001
      g+4     :    -0.000000
      g-4     :    -0.000000
  1 Aus       :     0.014282  s :     0.014282
      pz      :     0.016041  p :     0.018935
      px      :     0.000154
      py      :     0.002740
      dz2     :     0.018815  d :     0.018395
      dxz     :    -0.000282
      dyz     :    -0.001330
      dx2y2   :     0.002631
      dxy     :    -0.001437
      f0      :     0.000125  f :     0.000004
      f+1     :    -0.000013
      f-1     :    -0.000117
      f+2     :     0.000019
      f-2     :     0.000003
      f+3     :    -0.000018
      f-3     :     0.000006
      g0      :     0.000000  g :    -0.000001
      g+1     :    -0.000000
      g-1     :    -0.000000
      g+2     :    -0.000000
      g-2     :    -0.000000
      g+3     :    -0.000000
      g-3     :     0.000000
      g+4     :    -0.000000
      g-4     :    -0.000000
  2 Aus       :     0.014280  s :     0.014280
      pz      :     0.016042  p :     0.018936
      px      :     0.002093
      py      :     0.000801
      dz2     :     0.018817  d :     0.018398
      dxz     :    -0.001068
      dyz     :    -0.000544
      dx2y2   :    -0.000420
      dxy     :     0.001614
      f0      :     0.000125  f :     0.000004
      f+1     :    -0.000091
      f-1     :    -0.000039
      f+2     :     0.000007
      f-2     :     0.000015
      f+3     :    -0.000018
      f-3     :     0.000006
      g0      :     0.000000  g :    -0.000001
      g+1     :    -0.000000
      g-1     :    -0.000000
      g+2     :    -0.000000
      g-2     :    -0.000000
      g+3     :    -0.000000
      g-3     :     0.000000
      g+4     :    -0.000000
      g-4     :    -0.000000
  3 Aus       :     0.014280  s :     0.014280
      pz      :     0.016042  p :     0.018936
      px      :     0.002093
      py      :     0.000801
      dz2     :     0.018817  d :     0.018398
      dxz     :    -0.001068
      dyz     :    -0.000544
      dx2y2   :    -0.000420
      dxy     :     0.001614
      f0      :     0.000125  f :     0.000004
      f+1     :    -0.000091
      f-1     :    -0.000039
      f+2     :     0.000007
      f-2     :     0.000015
      f+3     :    -0.000018
      f-3     :     0.000006
      g0      :     0.000000  g :    -0.000001
      g+1     :    -0.000000
      g-1     :    -0.000000
      g+2     :    -0.000000
      g-2     :    -0.000000
      g+3     :    -0.000000
      g-3     :     0.000000
      g+4     :    -0.000000
      g-4     :    -0.000000
  4 H s       :     0.313142  s :     0.313142
      pz      :     0.013894  p :     0.018770
      px      :     0.002438
      py      :     0.002438
      dz2     :     0.000316  d :     0.000525
      dxz     :     0.000090
      dyz     :     0.000090
      dx2y2   :     0.000015
      dxy     :     0.000015


                      *****************************
                      * MAYER POPULATION ANALYSIS *
                      *****************************

  NA   - Mulliken gross atomic population
  ZA   - Total nuclear charge
  QA   - Mulliken gross atomic charge
  VA   - Mayer's total valence
  BVA  - Mayer's bonded valence
  FA   - Mayer's free valence

  ATOM       NA         ZA         QA         VA         BVA        FA
  0 Au    18.7256    19.0000     0.2744     2.2325     1.8406     0.3920
  1 Au    18.4983    19.0000     0.5017     1.4298     1.4256     0.0042
  2 Au    18.4980    19.0000     0.5020     1.4294     1.4253     0.0042
  3 Au    18.4980    19.0000     0.5020     1.4294     1.4253     0.0042
  4 H      0.7802     1.0000     0.2198     0.9931     0.8913     0.1018

  Mayer bond orders larger than 0.100000
B(  0-Au,  1-Au) :   0.3482 B(  0-Au,  2-Au) :   0.3479 B(  0-Au,  3-Au) :   0.3479 
B(  0-Au,  4-H ) :   0.7965 B(  1-Au,  2-Au) :   0.5229 B(  1-Au,  3-Au) :   0.5229 
B(  2-Au,  3-Au) :   0.5228 

-------
TIMINGS
-------

Total SCF time: 0 days 0 hours 0 min 16 sec 

Total time                  ....      16.243 sec
Sum of individual times     ....      15.949 sec  ( 98.2%)

Fock matrix formation       ....      14.053 sec  ( 86.5%)
  XC integration            ....       1.655 sec  ( 11.8% of F)
    Basis function eval.    ....       0.115 sec  (  7.0% of XC)
    Density eval.           ....       0.413 sec  ( 25.0% of XC)
    XC-Functional eval.     ....       0.058 sec  (  3.5% of XC)
    XC-Potential eval.      ....       0.726 sec  ( 43.9% of XC)
Diagonalization             ....       0.272 sec  (  1.7%)
Density matrix formation    ....       0.031 sec  (  0.2%)
Population analysis         ....       0.019 sec  (  0.1%)
Initial guess               ....       1.040 sec  (  6.4%)
Orbital Transformation      ....       0.000 sec  (  0.0%)
Orbital Orthonormalization  ....       0.000 sec  (  0.0%)
DIIS solution               ....       0.097 sec  (  0.6%)
Grid generation             ....       0.437 sec  (  2.7%)


-------------------------------------------------------------------------------
                          DFT DISPERSION CORRECTION                            
                                                                               
                              DFTD3 V3.1  Rev 1                                
                          USING Becke-Johnson damping                          
-------------------------------------------------------------------------------
The TPSSH functional is recognized
Active option DFTDOPT                   ...         4   

molecular C6(AA) [au] = 5326.213407 


            DFT-D V3
 parameters
 s6 scaling factor         :     1.0000 
 a1 scaling factor         :     0.4529 
 s8 scaling factor         :     2.2382 
 a2 scaling factor         :     4.6550 
 ad hoc parameters k1-k3   :    16.0000     1.3333    -4.0000 

 Edisp/kcal,au: -7.970193418522  -0.012701310335 
 E6   /kcal   :  -2.261452470 
 E8   /kcal   :  -5.708740949 
 % E8         :  71.626128111 

-------------------------   ----------------
Dispersion correction           -0.012701310
-------------------------   ----------------


-------------------------   --------------------
FINAL SINGLE POINT ENERGY      -542.714113500212
-------------------------   --------------------


                            ***************************************
                            *     ORCA property calculations      *
                            ***************************************

                                    ---------------------
                                    Active property flags
                                    ---------------------
   (+) Dipole Moment


------------------------------------------------------------------------------
                       ORCA ELECTRIC PROPERTIES CALCULATION
------------------------------------------------------------------------------

Dipole Moment Calculation                       ... on
Quadrupole Moment Calculation                   ... off
Polarizability Calculation                      ... off
GBWName                                         ... Au04C2_H_A.gbw
Electron density file                           ... Au04C2_H_A.scfp
The origin for moment calculation is the CENTER OF MASS  = ( 0.000000,  0.000000 -0.011841)

-------------
DIPOLE MOMENT
-------------
                                X             Y             Z
Electronic contribution:      0.00000      -0.00002      -5.60876
Nuclear contribution   :      0.00000      -0.00000       5.68843
                        -----------------------------------------
Total Dipole Moment    :      0.00000      -0.00002       0.07967
                        -----------------------------------------
Magnitude (a.u.)       :      0.07967
Magnitude (Debye)      :      0.20250



--------------------
Rotational spectrum 
--------------------
 
Rotational constants in cm-1:     0.011875     0.010977     0.010977 
Rotational constants in MHz :   356.004762   329.094939   329.094872 

 Dipole components along the rotational axes: 
x,y,z [a.u.] :    -0.079666     0.000000     0.000022 
x,y,z [Debye]:    -0.202496     0.000000     0.000055 

 

Timings for individual modules:

Sum of individual times         ...       18.330 sec (=   0.305 min)
GTO integral calculation        ...        1.717 sec (=   0.029 min)   9.4 %
SCF iterations                  ...       16.612 sec (=   0.277 min)  90.6 %
                             ****ORCA TERMINATED NORMALLY****
TOTAL RUN TIME: 0 days 0 hours 0 minutes 18 seconds 813 msec
