
                                 *****************
                                 * O   R   C   A *
                                 *****************

           --- An Ab Initio, DFT and Semiempirical electronic structure package ---

                  #######################################################
                  #                        -***-                        #
                  #          Department of theory and spectroscopy      #
                  #               Directorship: Frank Neese             #
                  #        Max Planck Institute fuer Kohlenforschung    #
                  #                Kaiser Wilhelm Platz 1               #
                  #                 D-45470 Muelheim/Ruhr               #
                  #                      Germany                        #
                  #                                                     #
                  #                  All rights reserved                #
                  #                        -***-                        #
                  #######################################################


                         Program Version 4.2.0 -  RELEASE  -


 With contributions from (in alphabetic order):
   Daniel Aravena         : Magnetic Suceptibility
   Michael Atanasov       : Ab Initio Ligand Field Theory (pilot matlab implementation)
   Alexander A. Auer      : GIAO ZORA, VPT2
   Ute Becker             : Parallelization
   Giovanni Bistoni       : ED, misc. LED, open-shell LED, HFLED
   Martin Brehm           : Molecular dynamics
   Dmytro Bykov           : SCF Hessian
   Vijay G. Chilkuri      : MRCI spin determinant printing, contributions to CSF-ICE
   Dipayan Datta          : RHF DLPNO-CCSD density
   Achintya Kumar Dutta   : EOM-CC, STEOM-CC
   Dmitry Ganyushin       : Spin-Orbit,Spin-Spin,Magnetic field MRCI
   Miquel Garcia          : C-PCM Hessian, Gaussian charge scheme
   Yang Guo               : DLPNO-NEVPT2, CIM, IAO-localization
   Andreas Hansen         : Spin unrestricted coupled pair/coupled cluster methods
   Benjamin Helmich-Paris : CASSCF linear response (MC-RPA)
   Lee Huntington         : MR-EOM, pCC
   Robert Izsak           : Overlap fitted RIJCOSX, COSX-SCS-MP3, EOM
   Christian Kollmar      : KDIIS, OOCD, Brueckner-CCSD(T), CCSD density
   Simone Kossmann        : Meta GGA functionals, TD-DFT gradient, OOMP2, MP2 Hessian
   Martin Krupicka        : AUTO-CI
   Lucas Lang             : DCDCAS
   Dagmar Lenk            : GEPOL surface, SMD
   Dimitrios Liakos       : Extrapolation schemes; Compound Job, initial MDCI parallelization
   Dimitrios Manganas     : Further ROCIS development; embedding schemes
   Dimitrios Pantazis     : SARC Basis sets
   Taras Petrenko         : DFT Hessian,TD-DFT gradient, ASA, ECA, R-Raman, ABS, FL, XAS/XES, NRVS
   Peter Pinski           : DLPNO-MP2, DLPNO-MP2 Gradient
   Christoph Reimann      : Effective Core Potentials
   Marius Retegan         : Local ZFS, SOC
   Christoph Riplinger    : Optimizer, TS searches, QM/MM, DLPNO-CCSD(T), (RO)-DLPNO pert. Triples
   Tobias Risthaus        : Range-separated hybrids, TD-DFT gradient, RPA, STAB
   Michael Roemelt        : Original ROCIS implementation
   Masaaki Saitow         : Open-shell DLPNO-CCSD energy and density
   Barbara Sandhoefer     : DKH picture change effects
   Avijit Sen             : IP-ROCIS
   Kantharuban Sivalingam : CASSCF convergence, NEVPT2, FIC-MRCI
   Bernardo de Souza      : ESD, SOC TD-DFT
   Georgi Stoychev        : AutoAux, RI-MP2 NMR
   Willem Van den Heuvel  : Paramagnetic NMR
   Boris Wezisla          : Elementary symmetry handling
   Frank Wennmohs         : Technical directorship


 We gratefully acknowledge several colleagues who have allowed us to
 interface, adapt or use parts of their codes:
   Stefan Grimme, W. Hujo, H. Kruse,             : VdW corrections, initial TS optimization,
                  C. Bannwarth                     DFT functionals, gCP, sTDA/sTD-DF
   Ed Valeev, F. Pavosevic, A. Kumar             : LibInt (2-el integral package), F12 methods
   Garnet Chan, S. Sharma, J. Yang, R. Olivares  : DMRG
   Ulf Ekstrom                                   : XCFun DFT Library
   Mihaly Kallay                                 : mrcc  (arbitrary order and MRCC methods)
   Andreas Klamt, Michael Diedenhofen            : otool_cosmo (COSMO solvation model)
   Jiri Pittner, Ondrej Demel                    : Mk-CCSD
   Frank Weinhold                                : gennbo (NPA and NBO analysis)
   Christopher J. Cramer and Donald G. Truhlar   : smd solvation model
   Lars Goerigk                                  : TD-DFT with DH, B97 family of functionals
   V. Asgeirsson, H. Jonsson                     : NEB implementation
   FAccTs GmbH                                   : IRC, NEB, NEB-TS, Multilevel, MM, QM/MM, CI optimization
   S Lehtola, MJT Oliveira, MAL Marques          : LibXC Library


 Your calculation uses the libint2 library for the computation of 2-el integrals
 For citations please refer to: http://libint.valeyev.net

 Your ORCA version has been built with support for libXC version: 4.2.3
 For citations please refer to: https://tddft.org/programs/libxc/

 This ORCA versions uses:
   CBLAS   interface :  Fast vector & matrix operations
   LAPACKE interface :  Fast linear algebra routines
   SCALAPACK package :  Parallel linear algebra routines


Your calculation utilizes the atom-pairwise dispersion correction
with the Becke-Johnson damping scheme (D3BJ)
Cite in your paper:
S.Grimme, S.Ehrlich, L.Goerigk, J Comput Chem, (2011), 32, 1456–1465 
S.Grimme, J.Antony, S.Ehrlich and H.Krieg, J.Chem.Phys., 132, (2010), 154104 
   

----- Orbital basis set information -----
Your calculation utilizes the basis: def2-TZVPPD
   F. Weigend and R. Ahlrichs, Phys. Chem. Chem. Phys. 7, 3297 (2005).
   D. Rappoport and F. Furche, J. Chem. Phys. 133 134105 (2010).

----- AuxJK basis set information -----
Your calculation utilizes the auxiliary basis: def2/JK
   H-Ba, Hf-Rn: F. Weigend, J. Comput. Chem. 29, 167 (2008).

cite the ECPs for Au [Def2-ECP] as follows:
Ce-Yb(ecp-28): M. Dolg, H. Stoll, H.Preuss, J. Chem. Phys., 1989, 90, 1730-1734.
Y-Cd(ecp-28), Hf-Hg(ecp-46): D. Andrae,U. Haeussermann, M. Dolg, H. Stoll, H. Preuss, Theor. Chim. Acta, 1990, 77, 123-141.
In-Sb(ecp-28), Tl-Bi(ecp-46): B. Metz, H. Stoll, M. Dolg, J. Chem. Phys., 2000, 113, 2563-2569.
Te-Xe(ecp-28), Po-Rn(ecp-46): K. A. Peterson, D. Figgen, E. Goll, H. Stoll, M. Dolg, J. Chem. Phys., 2003, 119, 11113-11123.
Rb(ecp-28), Cs(ecp-46): T. Leininger, A. Nicklass, W. Kuechle, H. Stoll, M. Dolg, A. Bergner, Chem. Phys. Lett., 1996, 255, 274-280.
Sr(ecp-28), Ba(ecp-46): M. Kaupp, P. V. Schleyer, H. Stoll and H. Preuss, J. Chem. Phys., 1991, 94, 1360-1366.
La(ecp-46): M. Dolg, H. Stoll, A. Savin, H. Preuss, Theor. Chim. Acta, 1989, 75, 173-194.
Lu(ecp-28): X. Cao, M. Dolg, J. Chem. Phys., 2001, 115, 7348-7355.

ECP parameters for Au [Def2-ECP] have been obtained from:
TURBOMOLE (7.0.2)

================================================================================
                                        WARNINGS
                       Please study these warnings very carefully!
================================================================================


WARNING: your system is open-shell and RHF/RKS was chosen
  ===> : WILL SWITCH to UHF/UKS


INFO   : the flag for use of LIBINT has been found!

================================================================================
                                       INPUT FILE
================================================================================
NAME = Au04C2_H_E.in
|  1> #
|  2> # Au04C2_H_E TPSSh-D3BJ/Def2-TZVPPD
|  3> #
|  4> ! tpssh d3bj def2-tzvppd def2/jk grid4 nofinalgrid
|  5> 
|  6> *xyz 2 2
|  7> Au       0.000000    1.337591    1.056475 
|  8> Au      -0.000000   -1.337591    1.056475 
|  9> Au      -1.306954    0.000000   -1.070288 
| 10> Au       1.306954   -0.000000   -1.070288 
| 11> H       -0.000000    0.000000    2.182427 
| 12> *
| 13> 
| 14> %maxcore 5000
| 15> 
| 16> %pal
| 17> nprocs = 24
| 18> end
| 19> 
| 20> 
| 21>                          ****END OF INPUT****
================================================================================

                       ****************************
                       * Single Point Calculation *
                       ****************************

---------------------------------
CARTESIAN COORDINATES (ANGSTROEM)
---------------------------------
  Au     0.000000    1.337591    1.056475
  Au    -0.000000   -1.337591    1.056475
  Au    -1.306954    0.000000   -1.070288
  Au     1.306954   -0.000000   -1.070288
  H     -0.000000    0.000000    2.182427

----------------------------
CARTESIAN COORDINATES (A.U.)
----------------------------
  NO LB      ZA    FRAG     MASS         X           Y           Z
   0 Au   19.0000*   0   196.966    0.000000    2.527681    1.996448
   1 Au   19.0000*   0   196.966   -0.000000   -2.527681    1.996448
   2 Au   19.0000*   0   196.966   -2.469785    0.000000   -2.022551
   3 Au   19.0000*   0   196.966    2.469785   -0.000000   -2.022551
   4 H     1.0000    0     1.008   -0.000000    0.000000    4.124189
* core charge reduced due to ECP

--------------------------------
INTERNAL COORDINATES (ANGSTROEM)
--------------------------------
 Au     0   0   0     0.000000000000     0.00000000     0.00000000
 Au     1   0   0     2.675182000000     0.00000000     0.00000000
 Au     1   2   0     2.832030949613    61.81577870     0.00000000
 Au     3   1   2     2.613908000000    62.51670281   286.18517030
 H      1   2   3     1.748404298092    40.08986778   148.42813812

---------------------------
INTERNAL COORDINATES (A.U.)
---------------------------
 Au     0   0   0     0.000000000000     0.00000000     0.00000000
 Au     1   0   0     5.055361338396     0.00000000     0.00000000
 Au     1   2   0     5.351762897558    61.81577870     0.00000000
 Au     3   1   2     4.939570259266    62.51670281   286.18517030
 H      1   2   3     3.304005294764    40.08986778   148.42813812

---------------------
BASIS SET INFORMATION
---------------------
There are 2 groups of distinct atoms

 Group   1 Type Au  : 8s8p6d2f1g contracted to 6s5p3d2f1g pattern {311111/41111/411/11/1}
 Group   2 Type H   : 5s3p1d contracted to 3s3p1d pattern {311/111/1}

Atom   0Au   basis set group =>   1
Atom   1Au   basis set group =>   1
Atom   2Au   basis set group =>   1
Atom   3Au   basis set group =>   1
Atom   4H    basis set group =>   2
----------------------------------
AUXILIARY/JK BASIS SET INFORMATION
----------------------------------
There are 2 groups of distinct atoms

 Group   1 Type Au  : 13s12p11d9f5g3h2i contracted to 13s11p10d8f4g3h2i pattern {1111111111111/21111111111/2111111111/21111111/2111/111/11}
 Group   2 Type H   : 4s2p2d contracted to 2s2p2d pattern {31/11/11}

Atom   0Au   basis set group =>   1
Atom   1Au   basis set group =>   1
Atom   2Au   basis set group =>   1
Atom   3Au   basis set group =>   1
Atom   4H    basis set group =>   2
-------------------------
ECP PARAMETER INFORMATION
-------------------------

 Group 1, Type Au ECP Def2-ECP (replacing 60 core electrons, lmax=3)

Atom   0Au   ECP group =>   1
Atom   1Au   ECP group =>   1
Atom   2Au   ECP group =>   1
Atom   3Au   ECP group =>   1



           ************************************************************
           *        Program running with 24 parallel MPI-processes    *
           *              working on a common directory               *
           ************************************************************
------------------------------------------------------------------------------
                           ORCA GTO INTEGRAL CALCULATION
------------------------------------------------------------------------------

                         BASIS SET STATISTICS AND STARTUP INFO

 # of primitive gaussian shells          ...  109
 # of primitive gaussian functions       ...  359
 # of contracted shells                  ...   75
 # of contracted basis functions         ...  253
 Highest angular momentum                ...    4
 Maximum contraction depth               ...    4
 Integral package used                   ... LIBINT
 Integral threshhold            Thresh   ...  1.000e-10
 Primitive cut-off              TCut     ...  1.000e-11


------------------------------ INTEGRAL EVALUATION ----------------------------


 * One electron integrals 

   ECP integrals                         ... done
 Pre-screening matrix                    ... done
 Shell pair data                         ... done (   0.001 sec)



           ************************************************************
           *        Program running with 24 parallel MPI-processes    *
           *              working on a common directory               *
           ************************************************************
-------------------------------------------------------------------------------
                                 ORCA SCF
-------------------------------------------------------------------------------

------------
SCF SETTINGS
------------
Hamiltonian:
 Density Functional     Method          .... DFT(GTOs)
 Exchange Functional    Exchange        .... TPSS
 Correlation Functional Correlation     .... TPSS
 LDA part of GGA corr.  LDAOpt          .... PW91-LDA
 Gradients option       PostSCFGGA      .... off
 Hybrid DFT is turned on
   Fraction HF Exchange ScalHFX         ....  0.100000
   Scaling of DF-GGA-X  ScalDFX         ....  0.900000
   Scaling of DF-GGA-C  ScalDFC         ....  1.000000
   Scaling of DF-LDA-C  ScalLDAC        ....  1.000000
   Perturbative correction              ....  0.000000
   Density functional embedding theory  .... OFF
   NL short-range parameter             ....  5.200000


General Settings:
 Integral files         IntName         .... Au04C2_H_E
 Hartree-Fock type      HFTyp           .... UHF
 Total Charge           Charge          ....    2
 Multiplicity           Mult            ....    2
 Number of Electrons    NEL             ....   75
 Basis Dimension        Dim             ....  253
 Nuclear Repulsion      ENuc            ....    431.5478390239 Eh

Convergence Acceleration:
 DIIS                   CNVDIIS         .... on
   Start iteration      DIISMaxIt       ....    12
   Startup error        DIISStart       ....  0.200000
   # of expansion vecs  DIISMaxEq       ....     5
   Bias factor          DIISBfac        ....   1.050
   Max. coefficient     DIISMaxC        ....  10.000
 Newton-Raphson         CNVNR           .... off
 SOSCF                  CNVSOSCF        .... off
 Level Shifting         CNVShift        .... on
   Level shift para.    LevelShift      ....    0.2500
   Turn off err/grad.   ShiftErr        ....    0.0010
 Zerner damping         CNVZerner       .... off
 Static damping         CNVDamp         .... on
   Fraction old density DampFac         ....    0.7000
   Max. Damping (<1)    DampMax         ....    0.9800
   Min. Damping (>=0)   DampMin         ....    0.0000
   Turn off err/grad.   DampErr         ....    0.1000
 Fernandez-Rico         CNVRico         .... off

SCF Procedure:
 Maximum # iterations   MaxIter         ....   125
 SCF integral mode      SCFMode         .... Direct
   Integral package                     .... LIBINT
 Reset frequency        DirectResetFreq ....    20
 Integral Threshold     Thresh          ....  1.000e-10 Eh
 Primitive CutOff       TCut            ....  1.000e-11 Eh

Convergence Tolerance:
 Convergence Check Mode ConvCheckMode   .... Total+1el-Energy
 Convergence forced     ConvForced      .... 0
 Energy Change          TolE            ....  1.000e-06 Eh
 1-El. energy change                    ....  1.000e-03 Eh
 DIIS Error             TolErr          ....  1.000e-06


Diagonalization of the overlap matrix:
Smallest eigenvalue                        ... 1.106e-03
Time for diagonalization                   ...    0.012 sec
Threshold for overlap eigenvalues          ... 1.000e-08
Number of eigenvalues below threshold      ... 0
Time for construction of square roots      ...    0.008 sec
Total time needed                          ...    0.021 sec

-------------------
DFT GRID GENERATION
-------------------

General Integration Accuracy     IntAcc      ...  4.670
Radial Grid Type                 RadialGrid  ... Gauss-Chebyshev
Angular Grid (max. acc.)         AngularGrid ... Lebedev-302
Angular grid pruning method      GridPruning ... 3 (G Style)
Weight generation scheme         WeightScheme... Becke
Basis function cutoff            BFCut       ...    1.0000e-10
Integration weight cutoff        WCut        ...    1.0000e-14
Grids for H and He will be reduced by one unit

# of grid points (after initial pruning)     ...  50002 (   0.0 sec)
# of grid points (after weights+screening)   ...  49058 (   0.0 sec)
nearest neighbour list constructed           ...    0.0 sec
Grid point re-assignment to atoms done       ...    0.0 sec
Grid point division into batches done        ...    0.4 sec
Reduced shell lists constructed in    0.4 sec

Total number of grid points                  ...    49058
Total number of batches                      ...      769
Average number of points per batch           ...       63
Average number of grid points per atom       ...     9812
Average number of shells per batch           ...    18.53 (24.71%)
Average number of basis functions per batch  ...    53.88 (21.30%)
Average number of large shells per batch     ...    13.18 (71.11%)
Average number of large basis fcns per batch ...    37.47 (69.54%)
Maximum spatial batch extension              ...  31.96, 26.72, 24.85 au
Average spatial batch extension              ...   0.46,  0.39,  0.40 au

Time for grid setup =    0.448 sec

------------------------------
INITIAL GUESS: MODEL POTENTIAL
------------------------------
Loading Hartree-Fock densities                     ... done
  calling /sw/apps/orca/orca_4_2_0_linux_x86-64_openmpi314/orca Au04C2_H_E_atom79.inp > Au04C2_H_E_atom79.out in order to generate an atomic fitting density for atom 0 (Au with ECP) on-the-fly... 
    atom 0 (Au), assumed electronic state with S=2: 1s2 2s2 2p6 3s2 3p6 4s2 3d10 4p6 5s2 4d10 5p6 6s1 4f14 5d10           ... done
Calculating cut-offs                               ... done
Setting up the integral package                    ... done
Initializing the effective Hamiltonian             ... done
Starting the Coulomb interaction                   ... done (   0.0 sec)
Reading the grid                                   ... done
Mapping shells                                     ... done
Starting the XC term evaluation                    ... done (   0.1 sec)
  promolecular density results
     # of electrons  =    317.008725377
     EX              =  -1463.569877948
     EC              =    -19.359524206
     EX+EC           =  -1482.929402153
Transforming the Hamiltonian                       ... done (   0.0 sec)
Diagonalizing the Hamiltonian                      ... done (   0.0 sec)
Back transforming the eigenvectors                 ... done (   0.0 sec)
Now organizing SCF variables                       ... done
                      ------------------
                      INITIAL GUESS DONE (   1.6 sec)
                      ------------------
--------------
SCF ITERATIONS
--------------
ITER       Energy         Delta-E        Max-DP      RMS-DP      [F,P]     Damp
               ***  Starting incremental Fock matrix formation  ***
  0   -542.3666210872   0.000000000000 0.11182549  0.00128128  0.5824018 0.7000
  1   -542.4985519683  -0.131930881152 0.07659806  0.00088211  0.4039787 0.7000
  2   -542.5593010628  -0.060749094417 0.05095260  0.00057367  0.2804833 0.7000
                               ***Turning on DIIS***
  3   -542.6011733925  -0.041872329744 0.03606207  0.00039486  0.1951376 0.7000
  4   -542.6314487562  -0.030275363743 0.02508665  0.00027804  0.1359314 0.7000
  5   -542.6527115340  -0.021262777739 0.05989871  0.00066694  0.0951407 0.0000
  6   -542.7023495541  -0.049638020093 0.00597462  0.00008505  0.0009621 0.0000
  7   -542.7024640928  -0.000114538743 0.00098767  0.00001568  0.0008156 0.0000
  8   -542.7024734700  -0.000009377213 0.00101789  0.00001350  0.0004643 0.0000
  9   -542.7024785767  -0.000005106665 0.00032851  0.00000595  0.0002676 0.0000
 10   -542.7024796953  -0.000001118602 0.00020112  0.00000270  0.0001475 0.0000
                 **** Energy Check signals convergence ****

               *****************************************************
               *                     SUCCESS                       *
               *           SCF CONVERGED AFTER  11 CYCLES          *
               *****************************************************


----------------
TOTAL SCF ENERGY
----------------

Total Energy       :         -542.70248013 Eh          -14767.68526 eV

Components:
Nuclear Repulsion  :          431.54783902 Eh           11743.01370 eV
Electronic Energy  :         -974.25031915 Eh          -26510.69896 eV
One Electron Energy:        -1786.98439458 Eh          -48626.31749 eV
Two Electron Energy:          812.73407542 Eh           22115.61853 eV

Virial components:
Potential Energy   :         -726.40550933 Eh          -19766.49882 eV
Kinetic Energy     :          183.70302920 Eh            4998.81356 eV
Virial Ratio       :            3.95423806


DFT components:
N(Alpha)           :       37.999998928485 electrons
N(Beta)            :       36.999997630365 electrons
N(Total)           :       74.999996558850 electrons
E(X)               :      -43.101196591378 Eh       
E(C)               :       -3.241523037629 Eh       
E(XC)              :      -46.342719629007 Eh       
DFET-embed. en.    :        0.000000000000 Eh       

---------------
SCF CONVERGENCE
---------------

  Last Energy change         ...   -4.3368e-07  Tolerance :   1.0000e-06
  Last MAX-Density change    ...    8.9759e-05  Tolerance :   1.0000e-05
  Last RMS-Density change    ...    1.2736e-06  Tolerance :   1.0000e-06
  Last DIIS Error            ...    3.2910e-05  Tolerance :   1.0000e-06

             **** THE GBW FILE WAS UPDATED (Au04C2_H_E.gbw) ****
             **** DENSITY FILE WAS UPDATED (Au04C2_H_E.scfp) ****
             **** ENERGY FILE WAS UPDATED (Au04C2_H_E.en.tmp) ****
----------------------
UHF SPIN CONTAMINATION
----------------------

Warning: in a DFT calculation there is little theoretical justification to 
         calculate <S**2> as in Hartree-Fock theory. We will do it anyways
         but you should keep in mind that the values have only limited relevance

Expectation value of <S**2>     :     0.756472
Ideal value S*(S+1) for S=0.5   :     0.750000
Deviation                       :     0.006472

             **** THE GBW FILE WAS UPDATED (Au04C2_H_E.gbw) ****
             **** DENSITY FILE WAS UPDATED (Au04C2_H_E.scfp) ****
----------------
ORBITAL ENERGIES
----------------
                 SPIN UP ORBITALS
  NO   OCC          E(Eh)            E(eV) 
   0   1.0000      -4.507094      -122.6443 
   1   1.0000      -4.506839      -122.6373 
   2   1.0000      -4.475446      -121.7831 
   3   1.0000      -4.475096      -121.7736 
   4   1.0000      -2.708529       -73.7028 
   5   1.0000      -2.703759       -73.5730 
   6   1.0000      -2.698721       -73.4359 
   7   1.0000      -2.697149       -73.3931 
   8   1.0000      -2.690555       -73.2137 
   9   1.0000      -2.690021       -73.1992 
  10   1.0000      -2.674381       -72.7736 
  11   1.0000      -2.668975       -72.6265 
  12   1.0000      -2.665472       -72.5312 
  13   1.0000      -2.663407       -72.4750 
  14   1.0000      -2.663304       -72.4722 
  15   1.0000      -2.662818       -72.4590 
  16   1.0000      -0.842730       -22.9319 
  17   1.0000      -0.785733       -21.3809 
  18   1.0000      -0.738264       -20.0892 
  19   1.0000      -0.737029       -20.0556 
  20   1.0000      -0.730724       -19.8840 
  21   1.0000      -0.717454       -19.5229 
  22   1.0000      -0.710195       -19.3254 
  23   1.0000      -0.709322       -19.3016 
  24   1.0000      -0.695984       -18.9387 
  25   1.0000      -0.690554       -18.7909 
  26   1.0000      -0.682277       -18.5657 
  27   1.0000      -0.676459       -18.4074 
  28   1.0000      -0.672356       -18.2957 
  29   1.0000      -0.670989       -18.2585 
  30   1.0000      -0.662525       -18.0282 
  31   1.0000      -0.657489       -17.8912 
  32   1.0000      -0.649669       -17.6784 
  33   1.0000      -0.647865       -17.6293 
  34   1.0000      -0.646028       -17.5793 
  35   1.0000      -0.639758       -17.4087 
  36   1.0000      -0.629499       -17.1296 
  37   1.0000      -0.578347       -15.7376 
  38   0.0000      -0.511155       -13.9092 
  39   0.0000      -0.492702       -13.4071 
  40   0.0000      -0.431314       -11.7366 
  41   0.0000      -0.360383        -9.8065 
  42   0.0000      -0.357572        -9.7300 
  43   0.0000      -0.352655        -9.5962 
  44   0.0000      -0.332192        -9.0394 
  45   0.0000      -0.316696        -8.6177 
  46   0.0000      -0.212334        -5.7779 
  47   0.0000      -0.208867        -5.6836 
  48   0.0000      -0.203477        -5.5369 
  49   0.0000      -0.200373        -5.4524 
  50   0.0000      -0.199395        -5.4258 
  51   0.0000      -0.189773        -5.1640 
  52   0.0000      -0.185840        -5.0570 
  53   0.0000      -0.155315        -4.2263 
  54   0.0000      -0.120248        -3.2721 
  55   0.0000      -0.116073        -3.1585 
  56   0.0000      -0.110558        -3.0084 
  57   0.0000      -0.108192        -2.9441 
  58   0.0000      -0.099133        -2.6975 
  59   0.0000      -0.098702        -2.6858 
  60   0.0000      -0.098641        -2.6842 
  61   0.0000      -0.069022        -1.8782 
  62   0.0000      -0.039737        -1.0813 
  63   0.0000      -0.037635        -1.0241 
  64   0.0000      -0.036191        -0.9848 
  65   0.0000      -0.029959        -0.8152 
  66   0.0000      -0.021054        -0.5729 
  67   0.0000      -0.016689        -0.4541 
  68   0.0000      -0.008718        -0.2372 
  69   0.0000       0.002383         0.0649 
  70   0.0000       0.004181         0.1138 
  71   0.0000       0.006911         0.1881 
  72   0.0000       0.021628         0.5885 
  73   0.0000       0.029217         0.7950 
  74   0.0000       0.048251         1.3130 
  75   0.0000       0.053946         1.4679 
  76   0.0000       0.080751         2.1973 
  77   0.0000       0.103107         2.8057 
  78   0.0000       0.139480         3.7954 
  79   0.0000       0.141865         3.8603 
  80   0.0000       0.148751         4.0477 
  81   0.0000       0.162810         4.4303 
  82   0.0000       0.164918         4.4876 
  83   0.0000       0.166263         4.5242 
  84   0.0000       0.166713         4.5365 
  85   0.0000       0.188913         5.1406 
  86   0.0000       0.205891         5.6026 
  87   0.0000       0.209776         5.7083 
  88   0.0000       0.213323         5.8048 
  89   0.0000       0.222857         6.0642 
  90   0.0000       0.223382         6.0785 
  91   0.0000       0.238145         6.4803 
  92   0.0000       0.243792         6.6339 
  93   0.0000       0.413753        11.2588 
  94   0.0000       0.458625        12.4798 
  95   0.0000       0.519893        14.1470 
  96   0.0000       0.537811        14.6346 
  97   0.0000       0.545320        14.8389 
  98   0.0000       0.555336        15.1115 
  99   0.0000       0.555530        15.1167 
 100   0.0000       0.572219        15.5709 
 101   0.0000       0.614393        16.7185 
 102   0.0000       0.652879        17.7658 
 103   0.0000       0.661656        18.0046 
 104   0.0000       0.676262        18.4020 
 105   0.0000       0.678233        18.4557 
 106   0.0000       0.711131        19.3509 
 107   0.0000       0.739351        20.1188 
 108   0.0000       0.742400        20.2017 
 109   0.0000       0.756795        20.5934 
 110   0.0000       0.775421        21.1003 
 111   0.0000       0.787505        21.4291 
 112   0.0000       0.797643        21.7050 
 113   0.0000       0.801508        21.8101 
 114   0.0000       0.802775        21.8446 
 115   0.0000       0.803894        21.8751 
 116   0.0000       0.830678        22.6039 
 117   0.0000       0.854115        23.2416 
 118   0.0000       0.858221        23.3534 
 119   0.0000       0.860853        23.4250 
 120   0.0000       0.870276        23.6814 
 121   0.0000       0.883136        24.0314 
 122   0.0000       0.900017        24.4907 
 123   0.0000       0.929606        25.2959 
 124   0.0000       0.936999        25.4970 
 125   0.0000       0.938353        25.5339 
 126   0.0000       0.953264        25.9396 
 127   0.0000       0.971371        26.4323 
 128   0.0000       0.992858        27.0170 
 129   0.0000       1.000972        27.2378 
 130   0.0000       1.004924        27.3454 
 131   0.0000       1.054293        28.6888 
 132   0.0000       1.071527        29.1577 
 133   0.0000       1.078189        29.3390 
 134   0.0000       1.081610        29.4321 
 135   0.0000       1.084587        29.5131 
 136   0.0000       1.116121        30.3712 
 137   0.0000       1.128208        30.7001 
 138   0.0000       1.142471        31.0882 
 139   0.0000       1.154551        31.4169 
 140   0.0000       1.154806        31.4239 
 141   0.0000       1.159333        31.5470 
 142   0.0000       1.174426        31.9577 
 143   0.0000       1.174984        31.9729 
 144   0.0000       1.175596        31.9896 
 145   0.0000       1.234956        33.6049 
 146   0.0000       1.239981        33.7416 
 147   0.0000       1.240204        33.7477 
 148   0.0000       1.344308        36.5805 
 149   0.0000       1.362109        37.0649 
 150   0.0000       1.368412        37.2364 
 151   0.0000       1.447274        39.3823 
 152   0.0000       1.484750        40.4021 
 153   0.0000       1.503472        40.9116 
 154   0.0000       1.538579        41.8669 
 155   0.0000       1.590747        43.2864 
 156   0.0000       1.898154        51.6514 
 157   0.0000       2.289451        62.2991 
 158   0.0000       2.311119        62.8887 
 159   0.0000       2.334352        63.5209 
 160   0.0000       2.536210        69.0138 
 161   0.0000       2.841799        77.3293 
 162   0.0000       2.844613        77.4059 
 163   0.0000       2.850894        77.5768 
 164   0.0000       3.033820        82.5544 
 165   0.0000       3.047537        82.9277 
 166   0.0000       3.051845        83.0449 
 167   0.0000       3.096201        84.2519 
 168   0.0000       3.127288        85.0978 
 169   0.0000       3.136664        85.3530 
 170   0.0000       3.142042        85.4993 
 171   0.0000       3.173961        86.3679 
 172   0.0000       3.194915        86.9380 
 173   0.0000       3.198851        87.0452 
 174   0.0000       3.199085        87.0515 
 175   0.0000       3.249307        88.4181 
 176   0.0000       3.268944        88.9525 
 177   0.0000       3.272739        89.0557 
 178   0.0000       3.274817        89.1123 
 179   0.0000       3.306869        89.9845 
 180   0.0000       3.311545        90.1117 
 181   0.0000       3.312027        90.1248 
 182   0.0000       3.321500        90.3826 
 183   0.0000       3.376842        91.8885 
 184   0.0000       3.397361        92.4469 
 185   0.0000       3.401872        92.5696 
 186   0.0000       3.402556        92.5883 
 187   0.0000       3.403098        92.6030 
 188   0.0000       3.438980        93.5794 
 189   0.0000       3.447143        93.8015 
 190   0.0000       3.523738        95.8858 
 191   0.0000       3.537341        96.2559 
 192   0.0000       3.542623        96.3997 
 193   0.0000       3.546263        96.4987 
 194   0.0000       3.559416        96.8566 
 195   0.0000       3.697001       100.6005 
 196   0.0000       3.698380       100.6380 
 197   0.0000       3.699326       100.6638 
 198   0.0000       3.701590       100.7254 
 199   0.0000       3.707706       100.8918 
 200   0.0000       3.709506       100.9408 
 201   0.0000       3.712285       101.0164 
 202   0.0000       3.712530       101.0231 
 203   0.0000       3.717273       101.1521 
 204   0.0000       3.719514       101.2131 
 205   0.0000       3.721121       101.2568 
 206   0.0000       3.721183       101.2585 
 207   0.0000       3.724028       101.3360 
 208   0.0000       3.724136       101.3389 
 209   0.0000       3.727837       101.4396 
 210   0.0000       3.731450       101.5379 
 211   0.0000       3.731737       101.5457 
 212   0.0000       3.732205       101.5585 
 213   0.0000       3.732536       101.5675 
 214   0.0000       3.734048       101.6086 
 215   0.0000       3.735005       101.6346 
 216   0.0000       3.736129       101.6652 
 217   0.0000       3.737661       101.7069 
 218   0.0000       3.765682       102.4694 
 219   0.0000       3.777513       102.7914 
 220   0.0000       3.778018       102.8051 
 221   0.0000       3.780994       102.8861 
 222   0.0000       3.790123       103.1345 
 223   0.0000       3.805448       103.5515 
 224   0.0000       3.868496       105.2671 
 225   0.0000       3.884230       105.6953 
 226   0.0000       3.976939       108.2180 
 227   0.0000       3.985988       108.4642 
 228   0.0000       4.031162       109.6935 
 229   0.0000       4.071669       110.7958 
 230   0.0000       4.258226       115.8722 
 231   0.0000       4.808942       130.8580 
 232   0.0000       4.921853       133.9304 
 233   0.0000      27.139276       738.4972 
 234   0.0000      27.202751       740.2245 
 235   0.0000      27.368556       744.7363 
 236   0.0000      27.497691       748.2502 
 237   0.0000      27.976435       761.2775 
 238   0.0000      28.439655       773.8823 
 239   0.0000      28.581908       777.7532 
 240   0.0000      29.144663       793.0666 
 241   0.0000      29.461683       801.6931 
 242   0.0000      29.495919       802.6248 
 243   0.0000      30.071414       818.2848 
 244   0.0000      30.693666       835.2171 
 245   0.0000      43.737857      1190.1676 
 246   0.0000      44.125241      1200.7089 
 247   0.0000      44.152715      1201.4565 
 248   0.0000      44.156153      1201.5500 
 249   0.0000     204.773232      5572.1629 
 250   0.0000     204.941975      5576.7546 
 251   0.0000     204.945529      5576.8514 
 252   0.0000     204.961237      5577.2788 

                 SPIN DOWN ORBITALS
  NO   OCC          E(Eh)            E(eV) 
   0   1.0000      -4.503062      -122.5346 
   1   1.0000      -4.502815      -122.5278 
   2   1.0000      -4.474131      -121.7473 
   3   1.0000      -4.473785      -121.7379 
   4   1.0000      -2.701141       -73.5018 
   5   1.0000      -2.695844       -73.3576 
   6   1.0000      -2.693695       -73.2992 
   7   1.0000      -2.692678       -73.2715 
   8   1.0000      -2.688895       -73.1686 
   9   1.0000      -2.688375       -73.1544 
  10   1.0000      -2.672673       -72.7271 
  11   1.0000      -2.667207       -72.5784 
  12   1.0000      -2.663593       -72.4800 
  13   1.0000      -2.662719       -72.4563 
  14   1.0000      -2.662150       -72.4408 
  15   1.0000      -2.661607       -72.4260 
  16   1.0000      -0.824676       -22.4406 
  17   1.0000      -0.779039       -21.1987 
  18   1.0000      -0.735467       -20.0131 
  19   1.0000      -0.733123       -19.9493 
  20   1.0000      -0.726071       -19.7574 
  21   1.0000      -0.713527       -19.4161 
  22   1.0000      -0.706191       -19.2164 
  23   1.0000      -0.706172       -19.2159 
  24   1.0000      -0.687833       -18.7169 
  25   1.0000      -0.685548       -18.6547 
  26   1.0000      -0.677759       -18.4428 
  27   1.0000      -0.674791       -18.3620 
  28   1.0000      -0.668011       -18.1775 
  29   1.0000      -0.666006       -18.1230 
  30   1.0000      -0.658430       -17.9168 
  31   1.0000      -0.653220       -17.7750 
  32   1.0000      -0.645514       -17.5653 
  33   1.0000      -0.644467       -17.5368 
  34   1.0000      -0.642564       -17.4850 
  35   1.0000      -0.635583       -17.2951 
  36   1.0000      -0.624171       -16.9846 
  37   0.0000      -0.538596       -14.6559 
  38   0.0000      -0.505415       -13.7530 
  39   0.0000      -0.488567       -13.2946 
  40   0.0000      -0.415915       -11.3176 
  41   0.0000      -0.352880        -9.6024 
  42   0.0000      -0.348679        -9.4880 
  43   0.0000      -0.346209        -9.4208 
  44   0.0000      -0.328322        -8.9341 
  45   0.0000      -0.313343        -8.5265 
  46   0.0000      -0.205176        -5.5831 
  47   0.0000      -0.203000        -5.5239 
  48   0.0000      -0.197540        -5.3753 
  49   0.0000      -0.197046        -5.3619 
  50   0.0000      -0.196388        -5.3440 
  51   0.0000      -0.183489        -4.9930 
  52   0.0000      -0.178436        -4.8555 
  53   0.0000      -0.148858        -4.0506 
  54   0.0000      -0.116083        -3.1588 
  55   0.0000      -0.109642        -2.9835 
  56   0.0000      -0.105211        -2.8629 
  57   0.0000      -0.104050        -2.8314 
  58   0.0000      -0.095793        -2.6067 
  59   0.0000      -0.095720        -2.6047 
  60   0.0000      -0.092801        -2.5253 
  61   0.0000      -0.066702        -1.8151 
  62   0.0000      -0.035194        -0.9577 
  63   0.0000      -0.032645        -0.8883 
  64   0.0000      -0.032432        -0.8825 
  65   0.0000      -0.026504        -0.7212 
  66   0.0000      -0.016404        -0.4464 
  67   0.0000      -0.010929        -0.2974 
  68   0.0000      -0.003437        -0.0935 
  69   0.0000       0.006843         0.1862 
  70   0.0000       0.011316         0.3079 
  71   0.0000       0.013115         0.3569 
  72   0.0000       0.024796         0.6747 
  73   0.0000       0.037715         1.0263 
  74   0.0000       0.052757         1.4356 
  75   0.0000       0.057638         1.5684 
  76   0.0000       0.082395         2.2421 
  77   0.0000       0.105535         2.8717 
  78   0.0000       0.145487         3.9589 
  79   0.0000       0.145948         3.9715 
  80   0.0000       0.151878         4.1328 
  81   0.0000       0.166784         4.5384 
  82   0.0000       0.167628         4.5614 
  83   0.0000       0.171462         4.6657 
  84   0.0000       0.174756         4.7554 
  85   0.0000       0.193742         5.2720 
  86   0.0000       0.209299         5.6953 
  87   0.0000       0.214141         5.8271 
  88   0.0000       0.217369         5.9149 
  89   0.0000       0.225877         6.1464 
  90   0.0000       0.227206         6.1826 
  91   0.0000       0.242481         6.5983 
  92   0.0000       0.249693         6.7945 
  93   0.0000       0.425145        11.5688 
  94   0.0000       0.466515        12.6945 
  95   0.0000       0.526131        14.3168 
  96   0.0000       0.541645        14.7389 
  97   0.0000       0.548620        14.9287 
  98   0.0000       0.559863        15.2347 
  99   0.0000       0.563788        15.3414 
 100   0.0000       0.576133        15.6774 
 101   0.0000       0.617906        16.8141 
 102   0.0000       0.657076        17.8800 
 103   0.0000       0.668807        18.1992 
 104   0.0000       0.680698        18.5227 
 105   0.0000       0.681575        18.5466 
 106   0.0000       0.716871        19.5070 
 107   0.0000       0.741086        20.1660 
 108   0.0000       0.745784        20.2938 
 109   0.0000       0.764270        20.7968 
 110   0.0000       0.779918        21.2226 
 111   0.0000       0.791587        21.5402 
 112   0.0000       0.802466        21.8362 
 113   0.0000       0.805062        21.9069 
 114   0.0000       0.805303        21.9134 
 115   0.0000       0.810936        22.0667 
 116   0.0000       0.837342        22.7852 
 117   0.0000       0.862313        23.4647 
 118   0.0000       0.863523        23.4977 
 119   0.0000       0.865498        23.5514 
 120   0.0000       0.873521        23.7697 
 121   0.0000       0.886591        24.1254 
 122   0.0000       0.907058        24.6823 
 123   0.0000       0.931475        25.3467 
 124   0.0000       0.943313        25.6688 
 125   0.0000       0.943371        25.6704 
 126   0.0000       0.961056        26.1517 
 127   0.0000       0.975151        26.5352 
 128   0.0000       0.995464        27.0880 
 129   0.0000       1.008208        27.4347 
 130   0.0000       1.009893        27.4806 
 131   0.0000       1.060308        28.8524 
 132   0.0000       1.077584        29.3226 
 133   0.0000       1.081821        29.4379 
 134   0.0000       1.087875        29.6026 
 135   0.0000       1.088269        29.6133 
 136   0.0000       1.121595        30.5202 
 137   0.0000       1.132086        30.8056 
 138   0.0000       1.147953        31.2374 
 139   0.0000       1.160239        31.5717 
 140   0.0000       1.161158        31.5967 
 141   0.0000       1.162539        31.6343 
 142   0.0000       1.177948        32.0536 
 143   0.0000       1.179422        32.0937 
 144   0.0000       1.182084        32.1661 
 145   0.0000       1.239045        33.7161 
 146   0.0000       1.243599        33.8401 
 147   0.0000       1.245223        33.8842 
 148   0.0000       1.348092        36.6834 
 149   0.0000       1.366324        37.1796 
 150   0.0000       1.372345        37.3434 
 151   0.0000       1.450359        39.4663 
 152   0.0000       1.496954        40.7342 
 153   0.0000       1.511462        41.1290 
 154   0.0000       1.544357        42.0241 
 155   0.0000       1.594665        43.3930 
 156   0.0000       1.902821        51.7784 
 157   0.0000       2.294556        62.4381 
 158   0.0000       2.314650        62.9848 
 159   0.0000       2.337651        63.6107 
 160   0.0000       2.554091        69.5003 
 161   0.0000       2.852069        77.6087 
 162   0.0000       2.854066        77.6631 
 163   0.0000       2.860249        77.8313 
 164   0.0000       3.036845        82.6368 
 165   0.0000       3.050257        83.0017 
 166   0.0000       3.054001        83.1036 
 167   0.0000       3.102940        84.4353 
 168   0.0000       3.130011        85.1719 
 169   0.0000       3.143855        85.5487 
 170   0.0000       3.146299        85.6152 
 171   0.0000       3.178211        86.4835 
 172   0.0000       3.198038        87.0231 
 173   0.0000       3.200862        87.0999 
 174   0.0000       3.201754        87.1241 
 175   0.0000       3.253763        88.5394 
 176   0.0000       3.273371        89.0729 
 177   0.0000       3.276921        89.1696 
 178   0.0000       3.280504        89.2670 
 179   0.0000       3.310941        90.0953 
 180   0.0000       3.315066        90.2075 
 181   0.0000       3.315317        90.2144 
 182   0.0000       3.325161        90.4822 
 183   0.0000       3.380464        91.9871 
 184   0.0000       3.405482        92.6679 
 185   0.0000       3.405945        92.6805 
 186   0.0000       3.406097        92.6846 
 187   0.0000       3.410210        92.7965 
 188   0.0000       3.442391        93.6722 
 189   0.0000       3.449775        93.8732 
 190   0.0000       3.529016        96.0294 
 191   0.0000       3.546859        96.5150 
 192   0.0000       3.547790        96.5403 
 193   0.0000       3.550746        96.6207 
 194   0.0000       3.566705        97.0550 
 195   0.0000       3.698870       100.6514 
 196   0.0000       3.700375       100.6923 
 197   0.0000       3.702816       100.7587 
 198   0.0000       3.705296       100.8262 
 199   0.0000       3.713290       101.0437 
 200   0.0000       3.713354       101.0455 
 201   0.0000       3.715558       101.1055 
 202   0.0000       3.716372       101.1276 
 203   0.0000       3.719887       101.2233 
 204   0.0000       3.721967       101.2799 
 205   0.0000       3.723452       101.3203 
 206   0.0000       3.724190       101.3404 
 207   0.0000       3.726613       101.4063 
 208   0.0000       3.727740       101.4370 
 209   0.0000       3.732002       101.5529 
 210   0.0000       3.733004       101.5802 
 211   0.0000       3.733172       101.5848 
 212   0.0000       3.734026       101.6080 
 213   0.0000       3.735100       101.6372 
 214   0.0000       3.737719       101.7085 
 215   0.0000       3.738012       101.7165 
 216   0.0000       3.740735       101.7906 
 217   0.0000       3.740915       101.7955 
 218   0.0000       3.768361       102.5423 
 219   0.0000       3.778612       102.8213 
 220   0.0000       3.779932       102.8572 
 221   0.0000       3.785830       103.0177 
 222   0.0000       3.793779       103.2340 
 223   0.0000       3.809514       103.6622 
 224   0.0000       3.873409       105.4008 
 225   0.0000       3.887756       105.7912 
 226   0.0000       3.978702       108.2660 
 227   0.0000       3.993436       108.6669 
 228   0.0000       4.039955       109.9328 
 229   0.0000       4.076322       110.9224 
 230   0.0000       4.261781       115.9689 
 231   0.0000       4.813322       130.9772 
 232   0.0000       4.924122       133.9922 
 233   0.0000      27.140972       738.5434 
 234   0.0000      27.204301       740.2667 
 235   0.0000      27.370593       744.7917 
 236   0.0000      27.499231       748.2921 
 237   0.0000      27.978052       761.3215 
 238   0.0000      28.441962       773.9451 
 239   0.0000      28.584970       777.8366 
 240   0.0000      29.147610       793.1468 
 241   0.0000      29.465003       801.7835 
 242   0.0000      29.497533       802.6687 
 243   0.0000      30.075055       818.3839 
 244   0.0000      30.697261       835.3149 
 245   0.0000      43.738981      1190.1982 
 246   0.0000      44.126338      1200.7387 
 247   0.0000      44.153359      1201.4740 
 248   0.0000      44.157757      1201.5936 
 249   0.0000     204.773994      5572.1837 
 250   0.0000     204.942671      5576.7736 
 251   0.0000     204.946547      5576.8791 
 252   0.0000     204.961674      5577.2907 

                    ********************************
                    * MULLIKEN POPULATION ANALYSIS *
                    ********************************

--------------------------------------------
MULLIKEN ATOMIC CHARGES AND SPIN POPULATIONS
--------------------------------------------
   0 Au:    0.464260    0.179481
   1 Au:    0.464265    0.179481
   2 Au:    0.435087    0.220944
   3 Au:    0.435095    0.220944
   4 H :    0.201293    0.199151
Sum of atomic charges         :    2.0000000
Sum of atomic spin populations:    1.0000000

-----------------------------------------------------
MULLIKEN REDUCED ORBITAL CHARGES AND SPIN POPULATIONS
-----------------------------------------------------
CHARGE
  0 Aus       :     2.670742  s :     2.670742
      pz      :     2.098964  p :     6.230817
      px      :     2.028901
      py      :     2.102951
      dz2     :     1.957740  d :     9.621160
      dxz     :     1.954354
      dyz     :     1.805418
      dx2y2   :     1.930769
      dxy     :     1.972879
      f0      :     0.001471  f :     0.012804
      f+1     :     0.001171
      f-1     :     0.002185
      f+2     :     0.003007
      f-2     :     0.001327
      f+3     :     0.001633
      f-3     :     0.002010
      g0      :     0.000018  g :     0.000217
      g+1     :     0.000008
      g-1     :     0.000018
      g+2     :     0.000042
      g-2     :     0.000016
      g+3     :     0.000016
      g-3     :     0.000044
      g+4     :     0.000030
      g-4     :     0.000025
  1 Aus       :     2.670739  s :     2.670739
      pz      :     2.098964  p :     6.230816
      px      :     2.028901
      py      :     2.102950
      dz2     :     1.957740  d :     9.621160
      dxz     :     1.954354
      dyz     :     1.805418
      dx2y2   :     1.930769
      dxy     :     1.972879
      f0      :     0.001471  f :     0.012804
      f+1     :     0.001171
      f-1     :     0.002185
      f+2     :     0.003007
      f-2     :     0.001327
      f+3     :     0.001633
      f-3     :     0.002010
      g0      :     0.000018  g :     0.000217
      g+1     :     0.000008
      g-1     :     0.000018
      g+2     :     0.000042
      g-2     :     0.000016
      g+3     :     0.000016
      g-3     :     0.000044
      g+4     :     0.000030
      g-4     :     0.000025
  2 Aus       :     2.703331  s :     2.703331
      pz      :     2.043662  p :     6.123203
      px      :     2.058137
      py      :     2.021405
      dz2     :     1.940447  d :     9.727552
      dxz     :     1.967842
      dyz     :     1.926334
      dx2y2   :     1.928332
      dxy     :     1.964597
      f0      :     0.001329  f :     0.010680
      f+1     :     0.001851
      f-1     :     0.001051
      f+2     :     0.001726
      f-2     :     0.001252
      f+3     :     0.001671
      f-3     :     0.001800
      g0      :     0.000012  g :     0.000147
      g+1     :     0.000021
      g-1     :     0.000008
      g+2     :     0.000018
      g-2     :     0.000017
      g+3     :     0.000017
      g-3     :     0.000011
      g+4     :     0.000022
      g-4     :     0.000022
  3 Aus       :     2.703326  s :     2.703326
      pz      :     2.043661  p :     6.123201
      px      :     2.058135
      py      :     2.021405
      dz2     :     1.940447  d :     9.727552
      dxz     :     1.967842
      dyz     :     1.926334
      dx2y2   :     1.928332
      dxy     :     1.964597
      f0      :     0.001329  f :     0.010680
      f+1     :     0.001851
      f-1     :     0.001051
      f+2     :     0.001726
      f-2     :     0.001252
      f+3     :     0.001671
      f-3     :     0.001800
      g0      :     0.000012  g :     0.000147
      g+1     :     0.000021
      g-1     :     0.000008
      g+2     :     0.000018
      g-2     :     0.000017
      g+3     :     0.000017
      g-3     :     0.000011
      g+4     :     0.000022
      g-4     :     0.000022
  4 H s       :     0.778275  s :     0.778275
      pz      :    -0.023412  p :     0.016227
      px      :     0.009227
      py      :     0.030412
      dz2     :     0.000797  d :     0.004205
      dxz     :     0.000652
      dyz     :     0.001309
      dx2y2   :     0.000757
      dxy     :     0.000690

SPIN
  0 Aus       :     0.012036  s :     0.012036
      pz      :     0.050776  p :     0.052520
      px      :    -0.000096
      py      :     0.001840
      dz2     :    -0.001170  d :     0.114802
      dxz     :     0.001572
      dyz     :     0.096784
      dx2y2   :     0.016976
      dxy     :     0.000640
      f0      :    -0.000017  f :     0.000112
      f+1     :    -0.000010
      f-1     :     0.000015
      f+2     :     0.000119
      f-2     :    -0.000029
      f+3     :    -0.000022
      f-3     :     0.000056
      g0      :     0.000001  g :     0.000011
      g+1     :    -0.000000
      g-1     :     0.000000
      g+2     :     0.000005
      g-2     :     0.000000
      g+3     :     0.000002
      g-3     :     0.000002
      g+4     :     0.000000
      g-4     :     0.000000
  1 Aus       :     0.012036  s :     0.012036
      pz      :     0.050776  p :     0.052520
      px      :    -0.000096
      py      :     0.001840
      dz2     :    -0.001170  d :     0.114802
      dxz     :     0.001572
      dyz     :     0.096784
      dx2y2   :     0.016976
      dxy     :     0.000640
      f0      :    -0.000017  f :     0.000112
      f+1     :    -0.000010
      f-1     :     0.000015
      f+2     :     0.000119
      f-2     :    -0.000029
      f+3     :    -0.000022
      f-3     :     0.000056
      g0      :     0.000001  g :     0.000011
      g+1     :    -0.000000
      g-1     :     0.000000
      g+2     :     0.000005
      g-2     :     0.000000
      g+3     :     0.000002
      g-3     :     0.000002
      g+4     :     0.000000
      g-4     :     0.000000
  2 Aus       :     0.186968  s :     0.186968
      pz      :    -0.001627  p :     0.006861
      px      :     0.007813
      py      :     0.000676
      dz2     :     0.020424  d :     0.027092
      dxz     :     0.007297
      dyz     :     0.002117
      dx2y2   :    -0.002662
      dxy     :    -0.000084
      f0      :    -0.000001  f :     0.000022
      f+1     :     0.000058
      f-1     :    -0.000029
      f+2     :     0.000011
      f-2     :    -0.000019
      f+3     :    -0.000008
      f-3     :     0.000009
      g0      :    -0.000000  g :     0.000000
      g+1     :     0.000000
      g-1     :     0.000000
      g+2     :    -0.000000
      g-2     :     0.000001
      g+3     :     0.000000
      g-3     :    -0.000000
      g+4     :    -0.000000
      g-4     :    -0.000000
  3 Aus       :     0.186969  s :     0.186969
      pz      :    -0.001627  p :     0.006861
      px      :     0.007813
      py      :     0.000676
      dz2     :     0.020424  d :     0.027092
      dxz     :     0.007297
      dyz     :     0.002117
      dx2y2   :    -0.002662
      dxy     :    -0.000084
      f0      :    -0.000001  f :     0.000022
      f+1     :     0.000058
      f-1     :    -0.000029
      f+2     :     0.000011
      f-2     :    -0.000019
      f+3     :    -0.000008
      f-3     :     0.000009
      g0      :    -0.000000  g :     0.000000
      g+1     :     0.000000
      g-1     :     0.000000
      g+2     :    -0.000000
      g-2     :     0.000001
      g+3     :     0.000000
      g-3     :    -0.000000
      g+4     :    -0.000000
      g-4     :    -0.000000
  4 H s       :     0.195126  s :     0.195126
      pz      :     0.002465  p :     0.004046
      px      :     0.001508
      py      :     0.000073
      dz2     :     0.000034  d :    -0.000022
      dxz     :    -0.000012
      dyz     :    -0.000052
      dx2y2   :    -0.000011
      dxy     :     0.000019


                     *******************************
                     * LOEWDIN POPULATION ANALYSIS *
                     *******************************

-------------------------------------------
LOEWDIN ATOMIC CHARGES AND SPIN POPULATIONS
-------------------------------------------
   0 Au:    0.587974    0.258546
   1 Au:    0.587975    0.258546
   2 Au:    0.478022    0.171657
   3 Au:    0.478022    0.171657
   4 H :   -0.131993    0.139594

----------------------------------------------------
LOEWDIN REDUCED ORBITAL CHARGES AND SPIN POPULATIONS
----------------------------------------------------
CHARGE
  0 Aus       :     2.354053  s :     2.354053
      pz      :     2.205016  p :     6.365792
      px      :     2.038609
      py      :     2.122167
      dz2     :     1.952155  d :     9.668990
      dxz     :     1.964165
      dyz     :     1.839624
      dx2y2   :     1.948524
      dxy     :     1.964522
      f0      :     0.002285  f :     0.022881
      f+1     :     0.001986
      f-1     :     0.003926
      f+2     :     0.005788
      f-2     :     0.002610
      f+3     :     0.002099
      f-3     :     0.004188
      g0      :     0.000030  g :     0.000310
      g+1     :     0.000011
      g-1     :     0.000023
      g+2     :     0.000065
      g-2     :     0.000027
      g+3     :     0.000016
      g-3     :     0.000069
      g+4     :     0.000043
      g-4     :     0.000026
  1 Aus       :     2.354053  s :     2.354053
      pz      :     2.205016  p :     6.365792
      px      :     2.038609
      py      :     2.122167
      dz2     :     1.952155  d :     9.668990
      dxz     :     1.964165
      dyz     :     1.839624
      dx2y2   :     1.948524
      dxy     :     1.964522
      f0      :     0.002285  f :     0.022881
      f+1     :     0.001986
      f-1     :     0.003926
      f+2     :     0.005788
      f-2     :     0.002610
      f+3     :     0.002099
      f-3     :     0.004188
      g0      :     0.000030  g :     0.000310
      g+1     :     0.000011
      g-1     :     0.000023
      g+2     :     0.000065
      g-2     :     0.000027
      g+3     :     0.000016
      g-3     :     0.000069
      g+4     :     0.000043
      g-4     :     0.000026
  2 Aus       :     2.455418  s :     2.455418
      pz      :     2.097736  p :     6.238705
      px      :     2.104697
      py      :     2.036272
      dz2     :     1.958225  d :     9.809654
      dxz     :     1.978628
      dyz     :     1.947436
      dx2y2   :     1.956302
      dxy     :     1.969063
      f0      :     0.001751  f :     0.017986
      f+1     :     0.003933
      f-1     :     0.001782
      f+2     :     0.002257
      f-2     :     0.002443
      f+3     :     0.003193
      f-3     :     0.002627
      g0      :     0.000019  g :     0.000215
      g+1     :     0.000029
      g-1     :     0.000010
      g+2     :     0.000027
      g-2     :     0.000027
      g+3     :     0.000023
      g-3     :     0.000015
      g+4     :     0.000035
      g-4     :     0.000030
  3 Aus       :     2.455418  s :     2.455418
      pz      :     2.097736  p :     6.238705
      px      :     2.104697
      py      :     2.036272
      dz2     :     1.958225  d :     9.809654
      dxz     :     1.978628
      dyz     :     1.947436
      dx2y2   :     1.956302
      dxy     :     1.969063
      f0      :     0.001751  f :     0.017986
      f+1     :     0.003933
      f-1     :     0.001782
      f+2     :     0.002257
      f-2     :     0.002443
      f+3     :     0.003193
      f-3     :     0.002627
      g0      :     0.000019  g :     0.000215
      g+1     :     0.000029
      g-1     :     0.000010
      g+2     :     0.000027
      g-2     :     0.000027
      g+3     :     0.000023
      g-3     :     0.000015
      g+4     :     0.000035
      g-4     :     0.000030
  4 H s       :     0.785448  s :     0.785448
      pz      :     0.129057  p :     0.317770
      px      :     0.053126
      py      :     0.135586
      dz2     :     0.004992  d :     0.028775
      dxz     :     0.003091
      dyz     :     0.012354
      dx2y2   :     0.004342
      dxy     :     0.003995

SPIN
  0 Aus       :     0.009230  s :     0.009230
      pz      :     0.114594  p :     0.117349
      px      :     0.000488
      py      :     0.002267
      dz2     :    -0.000736  d :     0.130636
      dxz     :     0.001911
      dyz     :     0.110000
      dx2y2   :     0.018647
      dxy     :     0.000813
      f0      :     0.000114  f :     0.001303
      f+1     :     0.000021
      f-1     :     0.000128
      f+2     :     0.000636
      f-2     :     0.000024
      f+3     :    -0.000011
      f-3     :     0.000390
      g0      :     0.000003  g :     0.000029
      g+1     :    -0.000000
      g-1     :     0.000000
      g+2     :     0.000015
      g-2     :     0.000001
      g+3     :     0.000001
      g-3     :     0.000006
      g+4     :     0.000002
      g-4     :     0.000000
  1 Aus       :     0.009230  s :     0.009230
      pz      :     0.114594  p :     0.117349
      px      :     0.000488
      py      :     0.002267
      dz2     :    -0.000736  d :     0.130636
      dxz     :     0.001911
      dyz     :     0.110000
      dx2y2   :     0.018647
      dxy     :     0.000813
      f0      :     0.000114  f :     0.001303
      f+1     :     0.000021
      f-1     :     0.000128
      f+2     :     0.000636
      f-2     :     0.000024
      f+3     :    -0.000011
      f-3     :     0.000390
      g0      :     0.000003  g :     0.000029
      g+1     :    -0.000000
      g-1     :     0.000000
      g+2     :     0.000015
      g-2     :     0.000001
      g+3     :     0.000001
      g-3     :     0.000006
      g+4     :     0.000002
      g-4     :     0.000000
  2 Aus       :     0.116783  s :     0.116783
      pz      :     0.015845  p :     0.022139
      px      :     0.006048
      py      :     0.000246
      dz2     :     0.024751  d :     0.032495
      dxz     :     0.007477
      dyz     :     0.001720
      dx2y2   :    -0.001035
      dxy     :    -0.000417
      f0      :     0.000008  f :     0.000239
      f+1     :     0.000310
      f-1     :    -0.000038
      f+2     :     0.000009
      f-2     :    -0.000027
      f+3     :    -0.000038
      f-3     :     0.000013
      g0      :    -0.000000  g :     0.000001
      g+1     :     0.000001
      g-1     :     0.000000
      g+2     :    -0.000000
      g-2     :     0.000001
      g+3     :     0.000000
      g-3     :    -0.000000
      g+4     :    -0.000001
      g-4     :    -0.000000
  3 Aus       :     0.116783  s :     0.116783
      pz      :     0.015845  p :     0.022139
      px      :     0.006048
      py      :     0.000246
      dz2     :     0.024751  d :     0.032495
      dxz     :     0.007477
      dyz     :     0.001720
      dx2y2   :    -0.001035
      dxy     :    -0.000417
      f0      :     0.000008  f :     0.000239
      f+1     :     0.000310
      f-1     :    -0.000038
      f+2     :     0.000009
      f-2     :    -0.000027
      f+3     :    -0.000038
      f-3     :     0.000013
      g0      :    -0.000000  g :     0.000001
      g+1     :     0.000001
      g-1     :     0.000000
      g+2     :    -0.000000
      g-2     :     0.000001
      g+3     :     0.000000
      g-3     :    -0.000000
      g+4     :    -0.000001
      g-4     :    -0.000000
  4 H s       :     0.137270  s :     0.137270
      pz      :     0.000882  p :     0.002516
      px      :     0.001276
      py      :     0.000359
      dz2     :     0.000220  d :    -0.000191
      dxz     :    -0.000028
      dyz     :    -0.000390
      dx2y2   :    -0.000015
      dxy     :     0.000021


                      *****************************
                      * MAYER POPULATION ANALYSIS *
                      *****************************

  NA   - Mulliken gross atomic population
  ZA   - Total nuclear charge
  QA   - Mulliken gross atomic charge
  VA   - Mayer's total valence
  BVA  - Mayer's bonded valence
  FA   - Mayer's free valence

  ATOM       NA         ZA         QA         VA         BVA        FA
  0 Au    18.5357    19.0000     0.4643     1.8645     1.8102     0.0544
  1 Au    18.5357    19.0000     0.4643     1.8645     1.8102     0.0544
  2 Au    18.5649    19.0000     0.4351     1.5268     1.4641     0.0627
  3 Au    18.5649    19.0000     0.4351     1.5268     1.4641     0.0627
  4 H      0.7987     1.0000     0.2013     0.9469     0.9087     0.0382

  Mayer bond orders larger than 0.100000
B(  0-Au,  1-Au) :   0.6265 B(  0-Au,  2-Au) :   0.3720 B(  0-Au,  3-Au) :   0.3720 
B(  0-Au,  4-H ) :   0.4396 B(  1-Au,  2-Au) :   0.3720 B(  1-Au,  3-Au) :   0.3720 
B(  1-Au,  4-H ) :   0.4396 B(  2-Au,  3-Au) :   0.7053 

-------
TIMINGS
-------

Total SCF time: 0 days 0 hours 0 min 15 sec 

Total time                  ....      15.746 sec
Sum of individual times     ....      15.458 sec  ( 98.2%)

Fock matrix formation       ....      13.534 sec  ( 85.9%)
  XC integration            ....       1.576 sec  ( 11.6% of F)
    Basis function eval.    ....       0.100 sec  (  6.4% of XC)
    Density eval.           ....       0.360 sec  ( 22.9% of XC)
    XC-Functional eval.     ....       0.048 sec  (  3.1% of XC)
    XC-Potential eval.      ....       0.635 sec  ( 40.3% of XC)
Diagonalization             ....       0.241 sec  (  1.5%)
Density matrix formation    ....       0.024 sec  (  0.2%)
Population analysis         ....       0.020 sec  (  0.1%)
Initial guess               ....       1.108 sec  (  7.0%)
Orbital Transformation      ....       0.000 sec  (  0.0%)
Orbital Orthonormalization  ....       0.000 sec  (  0.0%)
DIIS solution               ....       0.083 sec  (  0.5%)
Grid generation             ....       0.448 sec  (  2.8%)


-------------------------------------------------------------------------------
                          DFT DISPERSION CORRECTION                            
                                                                               
                              DFTD3 V3.1  Rev 1                                
                          USING Becke-Johnson damping                          
-------------------------------------------------------------------------------
The TPSSH functional is recognized
Active option DFTDOPT                   ...         4   

molecular C6(AA) [au] = 5322.948011 


            DFT-D V3
 parameters
 s6 scaling factor         :     1.0000 
 a1 scaling factor         :     0.4529 
 s8 scaling factor         :     2.2382 
 a2 scaling factor         :     4.6550 
 ad hoc parameters k1-k3   :    16.0000     1.3333    -4.0000 

 Edisp/kcal,au: -8.350105770559  -0.013306739141 
 E6   /kcal   :  -2.400724728 
 E8   /kcal   :  -5.949381042 
 % E8         :  71.249169839 

-------------------------   ----------------
Dispersion correction           -0.013306739
-------------------------   ----------------


-------------------------   --------------------
FINAL SINGLE POINT ENERGY      -542.715786868114
-------------------------   --------------------


                            ***************************************
                            *     ORCA property calculations      *
                            ***************************************

                                    ---------------------
                                    Active property flags
                                    ---------------------
   (+) Dipole Moment


------------------------------------------------------------------------------
                       ORCA ELECTRIC PROPERTIES CALCULATION
------------------------------------------------------------------------------

Dipole Moment Calculation                       ... on
Quadrupole Moment Calculation                   ... off
Polarizability Calculation                      ... off
GBWName                                         ... Au04C2_H_E.gbw
Electron density file                           ... Au04C2_H_E.scfp
The origin for moment calculation is the CENTER OF MASS  = ( 0.000000,  0.000000 -0.007765)

-------------
DIPOLE MOMENT
-------------
                                X             Y             Z
Electronic contribution:     -0.00000       0.00000      -3.44330
Nuclear contribution   :      0.00000       0.00000       3.73018
                        -----------------------------------------
Total Dipole Moment    :     -0.00000       0.00000       0.28689
                        -----------------------------------------
Magnitude (a.u.)       :      0.28689
Magnitude (Debye)      :      0.72921



--------------------
Rotational spectrum 
--------------------
 
Rotational constants in cm-1:     0.012236     0.010747     0.010533 
Rotational constants in MHz :   366.830155   322.181581   315.756842 

 Dipole components along the rotational axes: 
x,y,z [a.u.] :     0.286886     0.000000    -0.000000 
x,y,z [Debye]:     0.729206     0.000000    -0.000000 

 

Timings for individual modules:

Sum of individual times         ...       17.776 sec (=   0.296 min)
GTO integral calculation        ...        1.683 sec (=   0.028 min)   9.5 %
SCF iterations                  ...       16.093 sec (=   0.268 min)  90.5 %
                             ****ORCA TERMINATED NORMALLY****
TOTAL RUN TIME: 0 days 0 hours 0 minutes 18 seconds 261 msec
