
                                 *****************
                                 * O   R   C   A *
                                 *****************

           --- An Ab Initio, DFT and Semiempirical electronic structure package ---

                  #######################################################
                  #                        -***-                        #
                  #          Department of theory and spectroscopy      #
                  #               Directorship: Frank Neese             #
                  #        Max Planck Institute fuer Kohlenforschung    #
                  #                Kaiser Wilhelm Platz 1               #
                  #                 D-45470 Muelheim/Ruhr               #
                  #                      Germany                        #
                  #                                                     #
                  #                  All rights reserved                #
                  #                        -***-                        #
                  #######################################################


                         Program Version 4.2.0 -  RELEASE  -


 With contributions from (in alphabetic order):
   Daniel Aravena         : Magnetic Suceptibility
   Michael Atanasov       : Ab Initio Ligand Field Theory (pilot matlab implementation)
   Alexander A. Auer      : GIAO ZORA, VPT2
   Ute Becker             : Parallelization
   Giovanni Bistoni       : ED, misc. LED, open-shell LED, HFLED
   Martin Brehm           : Molecular dynamics
   Dmytro Bykov           : SCF Hessian
   Vijay G. Chilkuri      : MRCI spin determinant printing, contributions to CSF-ICE
   Dipayan Datta          : RHF DLPNO-CCSD density
   Achintya Kumar Dutta   : EOM-CC, STEOM-CC
   Dmitry Ganyushin       : Spin-Orbit,Spin-Spin,Magnetic field MRCI
   Miquel Garcia          : C-PCM Hessian, Gaussian charge scheme
   Yang Guo               : DLPNO-NEVPT2, CIM, IAO-localization
   Andreas Hansen         : Spin unrestricted coupled pair/coupled cluster methods
   Benjamin Helmich-Paris : CASSCF linear response (MC-RPA)
   Lee Huntington         : MR-EOM, pCC
   Robert Izsak           : Overlap fitted RIJCOSX, COSX-SCS-MP3, EOM
   Christian Kollmar      : KDIIS, OOCD, Brueckner-CCSD(T), CCSD density
   Simone Kossmann        : Meta GGA functionals, TD-DFT gradient, OOMP2, MP2 Hessian
   Martin Krupicka        : AUTO-CI
   Lucas Lang             : DCDCAS
   Dagmar Lenk            : GEPOL surface, SMD
   Dimitrios Liakos       : Extrapolation schemes; Compound Job, initial MDCI parallelization
   Dimitrios Manganas     : Further ROCIS development; embedding schemes
   Dimitrios Pantazis     : SARC Basis sets
   Taras Petrenko         : DFT Hessian,TD-DFT gradient, ASA, ECA, R-Raman, ABS, FL, XAS/XES, NRVS
   Peter Pinski           : DLPNO-MP2, DLPNO-MP2 Gradient
   Christoph Reimann      : Effective Core Potentials
   Marius Retegan         : Local ZFS, SOC
   Christoph Riplinger    : Optimizer, TS searches, QM/MM, DLPNO-CCSD(T), (RO)-DLPNO pert. Triples
   Tobias Risthaus        : Range-separated hybrids, TD-DFT gradient, RPA, STAB
   Michael Roemelt        : Original ROCIS implementation
   Masaaki Saitow         : Open-shell DLPNO-CCSD energy and density
   Barbara Sandhoefer     : DKH picture change effects
   Avijit Sen             : IP-ROCIS
   Kantharuban Sivalingam : CASSCF convergence, NEVPT2, FIC-MRCI
   Bernardo de Souza      : ESD, SOC TD-DFT
   Georgi Stoychev        : AutoAux, RI-MP2 NMR
   Willem Van den Heuvel  : Paramagnetic NMR
   Boris Wezisla          : Elementary symmetry handling
   Frank Wennmohs         : Technical directorship


 We gratefully acknowledge several colleagues who have allowed us to
 interface, adapt or use parts of their codes:
   Stefan Grimme, W. Hujo, H. Kruse,             : VdW corrections, initial TS optimization,
                  C. Bannwarth                     DFT functionals, gCP, sTDA/sTD-DF
   Ed Valeev, F. Pavosevic, A. Kumar             : LibInt (2-el integral package), F12 methods
   Garnet Chan, S. Sharma, J. Yang, R. Olivares  : DMRG
   Ulf Ekstrom                                   : XCFun DFT Library
   Mihaly Kallay                                 : mrcc  (arbitrary order and MRCC methods)
   Andreas Klamt, Michael Diedenhofen            : otool_cosmo (COSMO solvation model)
   Jiri Pittner, Ondrej Demel                    : Mk-CCSD
   Frank Weinhold                                : gennbo (NPA and NBO analysis)
   Christopher J. Cramer and Donald G. Truhlar   : smd solvation model
   Lars Goerigk                                  : TD-DFT with DH, B97 family of functionals
   V. Asgeirsson, H. Jonsson                     : NEB implementation
   FAccTs GmbH                                   : IRC, NEB, NEB-TS, Multilevel, MM, QM/MM, CI optimization
   S Lehtola, MJT Oliveira, MAL Marques          : LibXC Library


 Your calculation uses the libint2 library for the computation of 2-el integrals
 For citations please refer to: http://libint.valeyev.net

 Your ORCA version has been built with support for libXC version: 4.2.3
 For citations please refer to: https://tddft.org/programs/libxc/

 This ORCA versions uses:
   CBLAS   interface :  Fast vector & matrix operations
   LAPACKE interface :  Fast linear algebra routines
   SCALAPACK package :  Parallel linear algebra routines


Your calculation utilizes the atom-pairwise dispersion correction
with the Becke-Johnson damping scheme (D3BJ)
Cite in your paper:
S.Grimme, S.Ehrlich, L.Goerigk, J Comput Chem, (2011), 32, 1456–1465 
S.Grimme, J.Antony, S.Ehrlich and H.Krieg, J.Chem.Phys., 132, (2010), 154104 
   

----- Orbital basis set information -----
Your calculation utilizes the basis: def2-TZVPPD
   F. Weigend and R. Ahlrichs, Phys. Chem. Chem. Phys. 7, 3297 (2005).
   D. Rappoport and F. Furche, J. Chem. Phys. 133 134105 (2010).

----- AuxJK basis set information -----
Your calculation utilizes the auxiliary basis: def2/JK
   H-Ba, Hf-Rn: F. Weigend, J. Comput. Chem. 29, 167 (2008).

cite the ECPs for Au [Def2-ECP] as follows:
Ce-Yb(ecp-28): M. Dolg, H. Stoll, H.Preuss, J. Chem. Phys., 1989, 90, 1730-1734.
Y-Cd(ecp-28), Hf-Hg(ecp-46): D. Andrae,U. Haeussermann, M. Dolg, H. Stoll, H. Preuss, Theor. Chim. Acta, 1990, 77, 123-141.
In-Sb(ecp-28), Tl-Bi(ecp-46): B. Metz, H. Stoll, M. Dolg, J. Chem. Phys., 2000, 113, 2563-2569.
Te-Xe(ecp-28), Po-Rn(ecp-46): K. A. Peterson, D. Figgen, E. Goll, H. Stoll, M. Dolg, J. Chem. Phys., 2003, 119, 11113-11123.
Rb(ecp-28), Cs(ecp-46): T. Leininger, A. Nicklass, W. Kuechle, H. Stoll, M. Dolg, A. Bergner, Chem. Phys. Lett., 1996, 255, 274-280.
Sr(ecp-28), Ba(ecp-46): M. Kaupp, P. V. Schleyer, H. Stoll and H. Preuss, J. Chem. Phys., 1991, 94, 1360-1366.
La(ecp-46): M. Dolg, H. Stoll, A. Savin, H. Preuss, Theor. Chim. Acta, 1989, 75, 173-194.
Lu(ecp-28): X. Cao, M. Dolg, J. Chem. Phys., 2001, 115, 7348-7355.

ECP parameters for Au [Def2-ECP] have been obtained from:
TURBOMOLE (7.0.2)

================================================================================
                                        WARNINGS
                       Please study these warnings very carefully!
================================================================================


INFO   : the flag for use of LIBINT has been found!

================================================================================
                                       INPUT FILE
================================================================================
NAME = Au04C2.in
|  1> #
|  2> # Au04C2 TPSSh-D3BJ/Def2-TZVPPD
|  3> #
|  4> ! tpssh d3bj def2-tzvppd def2/jk grid4 nofinalgrid
|  5> 
|  6> *xyz 2 1
|  7> Au      -0.000000   -0.000044    1.659420 
|  8> Au      -1.354966    0.782292   -0.553161 
|  9> Au       1.354966    0.782292   -0.553161 
| 10> Au       0.000000   -1.564540   -0.553099 
| 11> *
| 12> 
| 13> %maxcore 5000
| 14> 
| 15> %pal
| 16> nprocs = 24
| 17> end
| 18> 
| 19> 
| 20>                          ****END OF INPUT****
================================================================================

                       ****************************
                       * Single Point Calculation *
                       ****************************

---------------------------------
CARTESIAN COORDINATES (ANGSTROEM)
---------------------------------
  Au    -0.000000   -0.000044    1.659420
  Au    -1.354966    0.782292   -0.553161
  Au     1.354966    0.782292   -0.553161
  Au     0.000000   -1.564540   -0.553099

----------------------------
CARTESIAN COORDINATES (A.U.)
----------------------------
  NO LB      ZA    FRAG     MASS         X           Y           Z
   0 Au   19.0000*   0   196.966   -0.000000   -0.000083    3.135849
   1 Au   19.0000*   0   196.966   -2.560515    1.478318   -1.045323
   2 Au   19.0000*   0   196.966    2.560515    1.478318   -1.045323
   3 Au   19.0000*   0   196.966    0.000000   -2.956552   -1.045206
* core charge reduced due to ECP

--------------------------------
INTERNAL COORDINATES (ANGSTROEM)
--------------------------------
 Au     0   0   0     0.000000000000     0.00000000     0.00000000
 Au     1   0   0     2.709888772554     0.00000000     0.00000000
 Au     1   2   0     2.709888772554    60.00105536     0.00000000
 Au     1   2   3     2.709776385493    60.00162481   289.47032483

---------------------------
INTERNAL COORDINATES (A.U.)
---------------------------
 Au     0   0   0     0.000000000000     0.00000000     0.00000000
 Au     1   0   0     5.120947633515     0.00000000     0.00000000
 Au     1   2   0     5.120947633515    60.00105536     0.00000000
 Au     1   2   3     5.120735252749    60.00162481   289.47032483

---------------------
BASIS SET INFORMATION
---------------------
There are 1 groups of distinct atoms

 Group   1 Type Au  : 8s8p6d2f1g contracted to 6s5p3d2f1g pattern {311111/41111/411/11/1}

Atom   0Au   basis set group =>   1
Atom   1Au   basis set group =>   1
Atom   2Au   basis set group =>   1
Atom   3Au   basis set group =>   1
----------------------------------
AUXILIARY/JK BASIS SET INFORMATION
----------------------------------
There are 1 groups of distinct atoms

 Group   1 Type Au  : 13s12p11d9f5g3h2i contracted to 13s11p10d8f4g3h2i pattern {1111111111111/21111111111/2111111111/21111111/2111/111/11}

Atom   0Au   basis set group =>   1
Atom   1Au   basis set group =>   1
Atom   2Au   basis set group =>   1
Atom   3Au   basis set group =>   1
-------------------------
ECP PARAMETER INFORMATION
-------------------------

 Group 1, Type Au ECP Def2-ECP (replacing 60 core electrons, lmax=3)

Atom   0Au   ECP group =>   1
Atom   1Au   ECP group =>   1
Atom   2Au   ECP group =>   1
Atom   3Au   ECP group =>   1



           ************************************************************
           *        Program running with 24 parallel MPI-processes    *
           *              working on a common directory               *
           ************************************************************
------------------------------------------------------------------------------
                           ORCA GTO INTEGRAL CALCULATION
------------------------------------------------------------------------------

                         BASIS SET STATISTICS AND STARTUP INFO

 # of primitive gaussian shells          ...  100
 # of primitive gaussian functions       ...  340
 # of contracted shells                  ...   68
 # of contracted basis functions         ...  236
 Highest angular momentum                ...    4
 Maximum contraction depth               ...    4
 Integral package used                   ... LIBINT
 Integral threshhold            Thresh   ...  1.000e-10
 Primitive cut-off              TCut     ...  1.000e-11


------------------------------ INTEGRAL EVALUATION ----------------------------


 * One electron integrals 

   ECP integrals                         ... done
 Pre-screening matrix                    ... done
 Shell pair data                         ... done (   0.001 sec)



           ************************************************************
           *        Program running with 24 parallel MPI-processes    *
           *              working on a common directory               *
           ************************************************************
-------------------------------------------------------------------------------
                                 ORCA SCF
-------------------------------------------------------------------------------

------------
SCF SETTINGS
------------
Hamiltonian:
 Density Functional     Method          .... DFT(GTOs)
 Exchange Functional    Exchange        .... TPSS
 Correlation Functional Correlation     .... TPSS
 LDA part of GGA corr.  LDAOpt          .... PW91-LDA
 Gradients option       PostSCFGGA      .... off
 Hybrid DFT is turned on
   Fraction HF Exchange ScalHFX         ....  0.100000
   Scaling of DF-GGA-X  ScalDFX         ....  0.900000
   Scaling of DF-GGA-C  ScalDFC         ....  1.000000
   Scaling of DF-LDA-C  ScalLDAC        ....  1.000000
   Perturbative correction              ....  0.000000
   Density functional embedding theory  .... OFF
   NL short-range parameter             ....  5.200000


General Settings:
 Integral files         IntName         .... Au04C2
 Hartree-Fock type      HFTyp           .... RHF
 Total Charge           Charge          ....    2
 Multiplicity           Mult            ....    1
 Number of Electrons    NEL             ....   74
 Basis Dimension        Dim             ....  236
 Nuclear Repulsion      ENuc            ....    422.9698503131 Eh

Convergence Acceleration:
 DIIS                   CNVDIIS         .... on
   Start iteration      DIISMaxIt       ....    12
   Startup error        DIISStart       ....  0.200000
   # of expansion vecs  DIISMaxEq       ....     5
   Bias factor          DIISBfac        ....   1.050
   Max. coefficient     DIISMaxC        ....  10.000
 Newton-Raphson         CNVNR           .... off
 SOSCF                  CNVSOSCF        .... off
 Level Shifting         CNVShift        .... on
   Level shift para.    LevelShift      ....    0.2500
   Turn off err/grad.   ShiftErr        ....    0.0010
 Zerner damping         CNVZerner       .... off
 Static damping         CNVDamp         .... on
   Fraction old density DampFac         ....    0.7000
   Max. Damping (<1)    DampMax         ....    0.9800
   Min. Damping (>=0)   DampMin         ....    0.0000
   Turn off err/grad.   DampErr         ....    0.1000
 Fernandez-Rico         CNVRico         .... off

SCF Procedure:
 Maximum # iterations   MaxIter         ....   125
 SCF integral mode      SCFMode         .... Direct
   Integral package                     .... LIBINT
 Reset frequency        DirectResetFreq ....    20
 Integral Threshold     Thresh          ....  1.000e-10 Eh
 Primitive CutOff       TCut            ....  1.000e-11 Eh

Convergence Tolerance:
 Convergence Check Mode ConvCheckMode   .... Total+1el-Energy
 Convergence forced     ConvForced      .... 0
 Energy Change          TolE            ....  1.000e-06 Eh
 1-El. energy change                    ....  1.000e-03 Eh
 DIIS Error             TolErr          ....  1.000e-06


Diagonalization of the overlap matrix:
Smallest eigenvalue                        ... 1.132e-03
Time for diagonalization                   ...    0.024 sec
Threshold for overlap eigenvalues          ... 1.000e-08
Number of eigenvalues below threshold      ... 0
Time for construction of square roots      ...    0.007 sec
Total time needed                          ...    0.031 sec

-------------------
DFT GRID GENERATION
-------------------

General Integration Accuracy     IntAcc      ...  4.670
Radial Grid Type                 RadialGrid  ... Gauss-Chebyshev
Angular Grid (max. acc.)         AngularGrid ... Lebedev-302
Angular grid pruning method      GridPruning ... 3 (G Style)
Weight generation scheme         WeightScheme... Becke
Basis function cutoff            BFCut       ...    1.0000e-10
Integration weight cutoff        WCut        ...    1.0000e-14
Grids for H and He will be reduced by one unit

# of grid points (after initial pruning)     ...  46608 (   0.0 sec)
# of grid points (after weights+screening)   ...  46157 (   0.0 sec)
nearest neighbour list constructed           ...    0.0 sec
Grid point re-assignment to atoms done       ...    0.0 sec
Grid point division into batches done        ...    0.5 sec
Reduced shell lists constructed in    0.5 sec

Total number of grid points                  ...    46157
Total number of batches                      ...      724
Average number of points per batch           ...       63
Average number of grid points per atom       ...    11539
Average number of shells per batch           ...     9.50 (13.97%)
Average number of basis functions per batch  ...    26.25 (11.12%)
Average number of large shells per batch     ...     5.94 (62.50%)
Average number of large basis fcns per batch ...    14.94 (56.90%)
Maximum spatial batch extension              ...  27.70, 27.52, 24.86 au
Average spatial batch extension              ...   0.57,  0.58,  0.53 au

Time for grid setup =    0.582 sec

------------------------------
INITIAL GUESS: MODEL POTENTIAL
------------------------------
Loading Hartree-Fock densities                     ... done
  calling /sw/apps/orca/orca_4_2_0_linux_x86-64_openmpi314/orca Au04C2_atom79.inp > Au04C2_atom79.out in order to generate an atomic fitting density for atom 0 (Au with ECP) on-the-fly... 
    atom 0 (Au), assumed electronic state with S=2: 1s2 2s2 2p6 3s2 3p6 4s2 3d10 4p6 5s2 4d10 5p6 6s1 4f14 5d10           ... done
Calculating cut-offs                               ... done
Setting up the integral package                    ... done
Initializing the effective Hamiltonian             ... done
Starting the Coulomb interaction                   ... done (   0.0 sec)
Reading the grid                                   ... done
Mapping shells                                     ... done
Starting the XC term evaluation                    ... done (   0.0 sec)
  promolecular density results
     # of electrons  =    316.009275119
     EX              =  -1463.257040048
     EC              =    -19.325793514
     EX+EC           =  -1482.582833563
Transforming the Hamiltonian                       ... done (   0.0 sec)
Diagonalizing the Hamiltonian                      ... done (   0.0 sec)
Back transforming the eigenvectors                 ... done (   0.0 sec)
Now organizing SCF variables                       ... done
                      ------------------
                      INITIAL GUESS DONE (   2.2 sec)
                      ------------------
--------------
SCF ITERATIONS
--------------
ITER       Energy         Delta-E        Max-DP      RMS-DP      [F,P]     Damp
               ***  Starting incremental Fock matrix formation  ***
  0   -541.7921317061   0.000000000000 0.20468472  0.00269044  0.5853005 0.7000
  1   -541.9329494647  -0.140817758604 0.14459596  0.00182926  0.4048523 0.7000
  2   -541.9962516532  -0.063302188480 0.09776742  0.00118371  0.2795737 0.7000
                               ***Turning on DIIS***
  3   -542.0398706586  -0.043619005406 0.06765903  0.00081244  0.1942573 0.7000
  4   -542.0712865098  -0.031415851232 0.04700447  0.00056644  0.1355230 0.7000
  5   -542.0933162490  -0.022029739255 0.11179096  0.00135145  0.0949020 0.0000
  6   -542.1445877681  -0.051271519002 0.00476261  0.00007628  0.0008008 0.0000
  7   -542.1446101055  -0.000022337408 0.00027722  0.00001189  0.0009243 0.0000
  8   -542.1446128972  -0.000002791782 0.00022125  0.00000535  0.0003680 0.0000
  9   -542.1446135864  -0.000000689136 0.00002296  0.00000102  0.0000587 0.0000
 10   -542.1446135907  -0.000000004344 0.00001429  0.00000039  0.0000151 0.0000
                 **** Energy Check signals convergence ****

               *****************************************************
               *                     SUCCESS                       *
               *           SCF CONVERGED AFTER  11 CYCLES          *
               *****************************************************


----------------
TOTAL SCF ENERGY
----------------

Total Energy       :         -542.14461360 Eh          -14752.50494 eV

Components:
Nuclear Repulsion  :          422.96985031 Eh           11509.59476 eV
Electronic Energy  :         -965.11446391 Eh          -26262.09970 eV
One Electron Energy:        -1770.25132735 Eh          -48170.98758 eV
Two Electron Energy:          805.13686344 Eh           21908.88788 eV

Virial components:
Potential Energy   :         -725.50619899 Eh          -19742.02734 eV
Kinetic Energy     :          183.36158539 Eh            4989.52240 eV
Virial Ratio       :            3.95669680


DFT components:
N(Alpha)           :       37.000012876347 electrons
N(Beta)            :       37.000012876347 electrons
N(Total)           :       74.000025752695 electrons
E(X)               :      -42.863495234619 Eh       
E(C)               :       -3.212593627034 Eh       
E(XC)              :      -46.076088861653 Eh       
DFET-embed. en.    :        0.000000000000 Eh       

---------------
SCF CONVERGENCE
---------------

  Last Energy change         ...   -6.6123e-09  Tolerance :   1.0000e-06
  Last MAX-Density change    ...    5.4470e-06  Tolerance :   1.0000e-05
  Last RMS-Density change    ...    1.7714e-07  Tolerance :   1.0000e-06
  Last DIIS Error            ...    7.7195e-06  Tolerance :   1.0000e-06

             **** THE GBW FILE WAS UPDATED (Au04C2.gbw) ****
             **** DENSITY FILE WAS UPDATED (Au04C2.scfp) ****
             **** ENERGY FILE WAS UPDATED (Au04C2.en.tmp) ****
             **** THE GBW FILE WAS UPDATED (Au04C2.gbw) ****
             **** DENSITY FILE WAS UPDATED (Au04C2.scfp) ****
----------------
ORBITAL ENERGIES
----------------

  NO   OCC          E(Eh)            E(eV) 
   0   2.0000      -4.480889      -121.9312 
   1   2.0000      -4.480480      -121.9201 
   2   2.0000      -4.480477      -121.9200 
   3   2.0000      -4.480474      -121.9199 
   4   2.0000      -2.682157       -72.9852 
   5   2.0000      -2.676218       -72.8236 
   6   2.0000      -2.676218       -72.8236 
   7   2.0000      -2.676213       -72.8235 
   8   2.0000      -2.670698       -72.6734 
   9   2.0000      -2.670692       -72.6732 
  10   2.0000      -2.669613       -72.6439 
  11   2.0000      -2.669606       -72.6437 
  12   2.0000      -2.669602       -72.6436 
  13   2.0000      -2.668101       -72.6027 
  14   2.0000      -2.668099       -72.6027 
  15   2.0000      -2.668092       -72.6025 
  16   2.0000      -0.787347       -21.4248 
  17   2.0000      -0.732156       -19.9230 
  18   2.0000      -0.732151       -19.9228 
  19   2.0000      -0.732149       -19.9228 
  20   2.0000      -0.713082       -19.4040 
  21   2.0000      -0.713082       -19.4039 
  22   2.0000      -0.691036       -18.8041 
  23   2.0000      -0.691031       -18.8039 
  24   2.0000      -0.691028       -18.8038 
  25   2.0000      -0.676282       -18.4026 
  26   2.0000      -0.657301       -17.8861 
  27   2.0000      -0.657299       -17.8860 
  28   2.0000      -0.657298       -17.8860 
  29   2.0000      -0.655747       -17.8438 
  30   2.0000      -0.655742       -17.8436 
  31   2.0000      -0.655741       -17.8436 
  32   2.0000      -0.654294       -17.8043 
  33   2.0000      -0.654287       -17.8041 
  34   2.0000      -0.627935       -17.0870 
  35   2.0000      -0.627934       -17.0869 
  36   2.0000      -0.627928       -17.0868 
  37   0.0000      -0.496589       -13.5129 
  38   0.0000      -0.496585       -13.5128 
  39   0.0000      -0.496582       -13.5127 
  40   0.0000      -0.349663        -9.5148 
  41   0.0000      -0.340758        -9.2725 
  42   0.0000      -0.340753        -9.2724 
  43   0.0000      -0.340751        -9.2723 
  44   0.0000      -0.318659        -8.6711 
  45   0.0000      -0.318658        -8.6711 
  46   0.0000      -0.192672        -5.2429 
  47   0.0000      -0.192672        -5.2429 
  48   0.0000      -0.192667        -5.2427 
  49   0.0000      -0.188901        -5.1403 
  50   0.0000      -0.188900        -5.1402 
  51   0.0000      -0.188895        -5.1401 
  52   0.0000      -0.130762        -3.5582 
  53   0.0000      -0.106297        -2.8925 
  54   0.0000      -0.102053        -2.7770 
  55   0.0000      -0.102050        -2.7769 
  56   0.0000      -0.102049        -2.7769 
  57   0.0000      -0.098147        -2.6707 
  58   0.0000      -0.098146        -2.6707 
  59   0.0000      -0.052966        -1.4413 
  60   0.0000      -0.052966        -1.4413 
  61   0.0000      -0.052959        -1.4411 
  62   0.0000      -0.020263        -0.5514 
  63   0.0000      -0.020258        -0.5512 
  64   0.0000      -0.020255        -0.5512 
  65   0.0000      -0.010323        -0.2809 
  66   0.0000      -0.010323        -0.2809 
  67   0.0000      -0.010317        -0.2807 
  68   0.0000       0.014879         0.4049 
  69   0.0000       0.014886         0.4051 
  70   0.0000       0.014891         0.4052 
  71   0.0000       0.063736         1.7344 
  72   0.0000       0.063740         1.7345 
  73   0.0000       0.077510         2.1091 
  74   0.0000       0.077512         2.1092 
  75   0.0000       0.077514         2.1093 
  76   0.0000       0.159022         4.3272 
  77   0.0000       0.159023         4.3272 
  78   0.0000       0.159026         4.3273 
  79   0.0000       0.161794         4.4026 
  80   0.0000       0.169352         4.6083 
  81   0.0000       0.169353         4.6083 
  82   0.0000       0.215870         5.8741 
  83   0.0000       0.215872         5.8742 
  84   0.0000       0.215880         5.8744 
  85   0.0000       0.230877         6.2825 
  86   0.0000       0.230880         6.2826 
  87   0.0000       0.230885         6.2827 
  88   0.0000       0.452829        12.3221 
  89   0.0000       0.527581        14.3562 
  90   0.0000       0.527601        14.3567 
  91   0.0000       0.527613        14.3571 
  92   0.0000       0.529435        14.4067 
  93   0.0000       0.529439        14.4068 
  94   0.0000       0.619353        16.8535 
  95   0.0000       0.622375        16.9357 
  96   0.0000       0.622380        16.9358 
  97   0.0000       0.622398        16.9363 
  98   0.0000       0.679543        18.4913 
  99   0.0000       0.679545        18.4913 
 100   0.0000       0.679551        18.4915 
 101   0.0000       0.734115        19.9763 
 102   0.0000       0.734124        19.9765 
 103   0.0000       0.734130        19.9767 
 104   0.0000       0.781716        21.2716 
 105   0.0000       0.781729        21.2719 
 106   0.0000       0.803231        21.8570 
 107   0.0000       0.803237        21.8572 
 108   0.0000       0.803240        21.8573 
 109   0.0000       0.811671        22.0867 
 110   0.0000       0.811704        22.0876 
 111   0.0000       0.811705        22.0876 
 112   0.0000       0.811714        22.0879 
 113   0.0000       0.908497        24.7215 
 114   0.0000       0.908500        24.7215 
 115   0.0000       0.908514        24.7219 
 116   0.0000       0.926446        25.2099 
 117   0.0000       0.926453        25.2101 
 118   0.0000       0.926455        25.2101 
 119   0.0000       0.973415        26.4880 
 120   0.0000       0.988996        26.9120 
 121   0.0000       0.989010        26.9123 
 122   0.0000       1.003104        27.2958 
 123   0.0000       1.003120        27.2963 
 124   0.0000       1.003143        27.2969 
 125   0.0000       1.066566        29.0227 
 126   0.0000       1.066569        29.0228 
 127   0.0000       1.066572        29.0229 
 128   0.0000       1.099103        29.9081 
 129   0.0000       1.099107        29.9082 
 130   0.0000       1.099135        29.9090 
 131   0.0000       1.115256        30.3477 
 132   0.0000       1.115258        30.3477 
 133   0.0000       1.160529        31.5796 
 134   0.0000       1.160532        31.5797 
 135   0.0000       1.160541        31.5799 
 136   0.0000       1.174279        31.9538 
 137   0.0000       1.174300        31.9543 
 138   0.0000       1.174308        31.9546 
 139   0.0000       1.227836        33.4111 
 140   0.0000       1.227864        33.4119 
 141   0.0000       1.239689        33.7337 
 142   0.0000       1.369542        37.2671 
 143   0.0000       1.369557        37.2675 
 144   0.0000       1.369576        37.2680 
 145   0.0000       1.573943        42.8292 
 146   0.0000       1.573957        42.8295 
 147   0.0000       1.574023        42.8313 
 148   0.0000       1.788479        48.6670 
 149   0.0000       2.367709        64.4286 
 150   0.0000       2.367735        64.4293 
 151   0.0000       2.367781        64.4306 
 152   0.0000       3.016226        82.0757 
 153   0.0000       3.037395        82.6517 
 154   0.0000       3.037525        82.6553 
 155   0.0000       3.037571        82.6565 
 156   0.0000       3.142071        85.5001 
 157   0.0000       3.142248        85.5049 
 158   0.0000       3.142398        85.5090 
 159   0.0000       3.176921        86.4484 
 160   0.0000       3.195142        86.9442 
 161   0.0000       3.195152        86.9445 
 162   0.0000       3.204466        87.1980 
 163   0.0000       3.204575        87.2009 
 164   0.0000       3.204723        87.2049 
 165   0.0000       3.250699        88.4560 
 166   0.0000       3.361917        91.4824 
 167   0.0000       3.361967        91.4838 
 168   0.0000       3.362081        91.4869 
 169   0.0000       3.370010        91.7026 
 170   0.0000       3.370053        91.7038 
 171   0.0000       3.370233        91.7087 
 172   0.0000       3.376002        91.8657 
 173   0.0000       3.376141        91.8695 
 174   0.0000       3.446365        93.7804 
 175   0.0000       3.446497        93.7840 
 176   0.0000       3.446540        93.7851 
 177   0.0000       3.557935        96.8163 
 178   0.0000       3.558186        96.8232 
 179   0.0000       3.558368        96.8281 
 180   0.0000       3.707693       100.8915 
 181   0.0000       3.707872       100.8963 
 182   0.0000       3.714757       101.0837 
 183   0.0000       3.714764       101.0839 
 184   0.0000       3.715145       101.0942 
 185   0.0000       3.716014       101.1179 
 186   0.0000       3.717662       101.1627 
 187   0.0000       3.717713       101.1641 
 188   0.0000       3.717740       101.1649 
 189   0.0000       3.718134       101.1756 
 190   0.0000       3.718429       101.1836 
 191   0.0000       3.718597       101.1882 
 192   0.0000       3.725544       101.3772 
 193   0.0000       3.725755       101.3830 
 194   0.0000       3.726257       101.3966 
 195   0.0000       3.726473       101.4025 
 196   0.0000       3.726605       101.4061 
 197   0.0000       3.728040       101.4451 
 198   0.0000       3.728246       101.4507 
 199   0.0000       3.728267       101.4513 
 200   0.0000       3.730513       101.5124 
 201   0.0000       3.730607       101.5150 
 202   0.0000       3.750174       102.0474 
 203   0.0000       3.750209       102.0484 
 204   0.0000       3.750396       102.0535 
 205   0.0000       3.750957       102.0687 
 206   0.0000       3.750984       102.0695 
 207   0.0000       3.754829       102.1741 
 208   0.0000       3.754933       102.1769 
 209   0.0000       3.755042       102.1799 
 210   0.0000       3.824905       104.0810 
 211   0.0000       3.824955       104.0823 
 212   0.0000       3.825021       104.0841 
 213   0.0000       3.919702       106.6605 
 214   0.0000       3.919731       106.6613 
 215   0.0000       3.919819       106.6637 
 216   0.0000      27.111829       737.7504 
 217   0.0000      27.111925       737.7530 
 218   0.0000      27.206418       740.3243 
 219   0.0000      27.206462       740.3255 
 220   0.0000      27.206505       740.3266 
 221   0.0000      28.357540       771.6479 
 222   0.0000      28.357651       771.6509 
 223   0.0000      28.357876       771.6570 
 224   0.0000      28.460099       774.4387 
 225   0.0000      29.261886       796.2564 
 226   0.0000      29.261955       796.2583 
 227   0.0000      29.262295       796.2675 
 228   0.0000      43.591819      1186.1937 
 229   0.0000      44.193058      1202.5543 
 230   0.0000      44.193085      1202.5550 
 231   0.0000      44.193124      1202.5560 
 232   0.0000     204.711846      5570.4925 
 233   0.0000     204.976105      5577.6834 
 234   0.0000     204.976114      5577.6836 
 235   0.0000     204.976128      5577.6840 

                    ********************************
                    * MULLIKEN POPULATION ANALYSIS *
                    ********************************

-----------------------
MULLIKEN ATOMIC CHARGES
-----------------------
   0 Au:    0.499924
   1 Au:    0.500060
   2 Au:    0.500053
   3 Au:    0.499962
Sum of atomic charges:    2.0000000

--------------------------------
MULLIKEN REDUCED ORBITAL CHARGES
--------------------------------
  0 Aus       :     2.614974  s :     2.614974
      pz      :     2.071372  p :     6.124562
      px      :     2.026599
      py      :     2.026591
      dz2     :     1.963149  d :     9.748044
      dxz     :     1.911585
      dyz     :     1.911568
      dx2y2   :     1.980873
      dxy     :     1.980870
      f0      :     0.002357  f :     0.012332
      f+1     :     0.002517
      f-1     :     0.002516
      f+2     :     0.002030
      f-2     :     0.002030
      f+3     :     0.000447
      f-3     :     0.000435
      g0      :     0.000022  g :     0.000163
      g+1     :     0.000029
      g-1     :     0.000029
      g+2     :     0.000028
      g-2     :     0.000028
      g+3     :     0.000013
      g-3     :     0.000012
      g+4     :     0.000002
      g-4     :     0.000002
  1 Aus       :     2.614872  s :     2.614872
      pz      :     2.031558  p :     6.124525
      px      :     2.056437
      py      :     2.036530
      dz2     :     1.936856  d :     9.748050
      dxz     :     1.957016
      dyz     :     1.978546
      dx2y2   :     1.920480
      dxy     :     1.955152
      f0      :     0.001606  f :     0.012329
      f+1     :     0.001977
      f-1     :     0.001253
      f+2     :     0.001592
      f-2     :     0.001339
      f+3     :     0.002382
      f-3     :     0.002181
      g0      :     0.000014  g :     0.000163
      g+1     :     0.000021
      g-1     :     0.000011
      g+2     :     0.000019
      g-2     :     0.000019
      g+3     :     0.000018
      g-3     :     0.000009
      g+4     :     0.000027
      g-4     :     0.000026
  2 Aus       :     2.614877  s :     2.614877
      pz      :     2.031558  p :     6.124527
      px      :     2.056439
      py      :     2.036530
      dz2     :     1.936856  d :     9.748050
      dxz     :     1.957016
      dyz     :     1.978546
      dx2y2   :     1.920480
      dxy     :     1.955152
      f0      :     0.001606  f :     0.012329
      f+1     :     0.001977
      f-1     :     0.001253
      f+2     :     0.001592
      f-2     :     0.001339
      f+3     :     0.002382
      f-3     :     0.002181
      g0      :     0.000014  g :     0.000163
      g+1     :     0.000021
      g-1     :     0.000011
      g+2     :     0.000019
      g-2     :     0.000019
      g+3     :     0.000018
      g-3     :     0.000009
      g+4     :     0.000027
      g-4     :     0.000026
  3 Aus       :     2.614954  s :     2.614954
      pz      :     2.031562  p :     6.124565
      px      :     2.026600
      py      :     2.066403
      dz2     :     1.936842  d :     9.748024
      dxz     :     1.989313
      dyz     :     1.946245
      dx2y2   :     1.972482
      dxy     :     1.903141
      f0      :     0.001606  f :     0.012331
      f+1     :     0.000891
      f-1     :     0.002339
      f+2     :     0.001212
      f-2     :     0.001719
      f+3     :     0.002383
      f-3     :     0.002181
      g0      :     0.000014  g :     0.000163
      g+1     :     0.000006
      g-1     :     0.000026
      g+2     :     0.000019
      g-2     :     0.000019
      g+3     :     0.000018
      g-3     :     0.000009
      g+4     :     0.000025
      g-4     :     0.000028


                     *******************************
                     * LOEWDIN POPULATION ANALYSIS *
                     *******************************

----------------------
LOEWDIN ATOMIC CHARGES
----------------------
   0 Au:    0.499982
   1 Au:    0.500006
   2 Au:    0.500006
   3 Au:    0.500005

-------------------------------
LOEWDIN REDUCED ORBITAL CHARGES
-------------------------------
  0 Aus       :     2.407150  s :     2.407150
      pz      :     2.152145  p :     6.243376
      px      :     2.045615
      py      :     2.045615
      dz2     :     1.980069  d :     9.828768
      dxz     :     1.939661
      dyz     :     1.939654
      dx2y2   :     1.984693
      dxy     :     1.984691
      f0      :     0.002977  f :     0.020484
      f+1     :     0.004996
      f-1     :     0.004996
      f+2     :     0.003141
      f-2     :     0.003141
      f+3     :     0.000656
      f-3     :     0.000575
      g0      :     0.000025  g :     0.000240
      g+1     :     0.000045
      g-1     :     0.000045
      g+2     :     0.000043
      g-2     :     0.000043
      g+3     :     0.000018
      g-3     :     0.000016
      g+4     :     0.000002
      g-4     :     0.000002
  1 Aus       :     2.407126  s :     2.407126
      pz      :     2.057447  p :     6.243365
      px      :     2.116632
      py      :     2.069285
      dz2     :     1.959211  d :     9.828784
      dxz     :     1.969253
      dyz     :     1.982022
      dx2y2   :     1.947549
      dxy     :     1.970749
      f0      :     0.002067  f :     0.020480
      f+1     :     0.004064
      f-1     :     0.002331
      f+2     :     0.002161
      f-2     :     0.001985
      f+3     :     0.005079
      f-3     :     0.002793
      g0      :     0.000022  g :     0.000240
      g+1     :     0.000028
      g-1     :     0.000015
      g+2     :     0.000031
      g-2     :     0.000032
      g+3     :     0.000022
      g-3     :     0.000011
      g+4     :     0.000043
      g-4     :     0.000036
  2 Aus       :     2.407126  s :     2.407126
      pz      :     2.057447  p :     6.243365
      px      :     2.116632
      py      :     2.069285
      dz2     :     1.959211  d :     9.828784
      dxz     :     1.969253
      dyz     :     1.982022
      dx2y2   :     1.947549
      dxy     :     1.970749
      f0      :     0.002067  f :     0.020480
      f+1     :     0.004064
      f-1     :     0.002331
      f+2     :     0.002161
      f-2     :     0.001985
      f+3     :     0.005079
      f-3     :     0.002793
      g0      :     0.000022  g :     0.000240
      g+1     :     0.000028
      g-1     :     0.000015
      g+2     :     0.000031
      g-2     :     0.000032
      g+3     :     0.000022
      g-3     :     0.000011
      g+4     :     0.000043
      g-4     :     0.000036
  3 Aus       :     2.407126  s :     2.407126
      pz      :     2.057454  p :     6.243379
      px      :     2.045616
      py      :     2.140309
      dz2     :     1.959203  d :     9.828766
      dxz     :     1.988409
      dyz     :     1.962861
      dx2y2   :     1.982350
      dxy     :     1.935943
      f0      :     0.002068  f :     0.020484
      f+1     :     0.001464
      f-1     :     0.004933
      f+2     :     0.001897
      f-2     :     0.002250
      f+3     :     0.005080
      f-3     :     0.002793
      g0      :     0.000022  g :     0.000240
      g+1     :     0.000009
      g-1     :     0.000034
      g+2     :     0.000033
      g-2     :     0.000030
      g+3     :     0.000023
      g-3     :     0.000011
      g+4     :     0.000032
      g-4     :     0.000047


                      *****************************
                      * MAYER POPULATION ANALYSIS *
                      *****************************

  NA   - Mulliken gross atomic population
  ZA   - Total nuclear charge
  QA   - Mulliken gross atomic charge
  VA   - Mayer's total valence
  BVA  - Mayer's bonded valence
  FA   - Mayer's free valence

  ATOM       NA         ZA         QA         VA         BVA        FA
  0 Au    18.5001    19.0000     0.4999     1.4354     1.4354    -0.0000
  1 Au    18.4999    19.0000     0.5001     1.4353     1.4353     0.0000
  2 Au    18.4999    19.0000     0.5001     1.4353     1.4353    -0.0000
  3 Au    18.5000    19.0000     0.5000     1.4354     1.4354     0.0000

  Mayer bond orders larger than 0.100000
B(  0-Au,  1-Au) :   0.4784 B(  0-Au,  2-Au) :   0.4784 B(  0-Au,  3-Au) :   0.4785 
B(  1-Au,  2-Au) :   0.4784 B(  1-Au,  3-Au) :   0.4784 B(  2-Au,  3-Au) :   0.4785 


-------
TIMINGS
-------

Total SCF time: 0 days 0 hours 0 min 12 sec 

Total time                  ....      12.536 sec
Sum of individual times     ....      12.282 sec  ( 98.0%)

Fock matrix formation       ....       9.891 sec  ( 78.9%)
  XC integration            ....       0.765 sec  (  7.7% of F)
    Basis function eval.    ....       0.089 sec  ( 11.7% of XC)
    Density eval.           ....       0.170 sec  ( 22.2% of XC)
    XC-Functional eval.     ....       0.044 sec  (  5.8% of XC)
    XC-Potential eval.      ....       0.268 sec  ( 35.1% of XC)
Diagonalization             ....       0.097 sec  (  0.8%)
Density matrix formation    ....       0.014 sec  (  0.1%)
Population analysis         ....       0.009 sec  (  0.1%)
Initial guess               ....       1.643 sec  ( 13.1%)
Orbital Transformation      ....       0.000 sec  (  0.0%)
Orbital Orthonormalization  ....       0.000 sec  (  0.0%)
DIIS solution               ....       0.046 sec  (  0.4%)
Grid generation             ....       0.582 sec  (  4.6%)


-------------------------------------------------------------------------------
                          DFT DISPERSION CORRECTION                            
                                                                               
                              DFTD3 V3.1  Rev 1                                
                          USING Becke-Johnson damping                          
-------------------------------------------------------------------------------
The TPSSH functional is recognized
Active option DFTDOPT                   ...         4   

molecular C6(AA) [au] = 5074.497630 


            DFT-D V3
 parameters
 s6 scaling factor         :     1.0000 
 a1 scaling factor         :     0.4529 
 s8 scaling factor         :     2.2382 
 a2 scaling factor         :     4.6550 
 ad hoc parameters k1-k3   :    16.0000     1.3333    -4.0000 

 Edisp/kcal,au: -7.346138481429  -0.011706815596 
 E6   /kcal   :  -1.997470159 
 E8   /kcal   :  -5.348668323 
 % E8         :  72.809249872 

-------------------------   ----------------
Dispersion correction           -0.011706816
-------------------------   ----------------


-------------------------   --------------------
FINAL SINGLE POINT ENERGY      -542.156320412929
-------------------------   --------------------


                            ***************************************
                            *     ORCA property calculations      *
                            ***************************************

                                    ---------------------
                                    Active property flags
                                    ---------------------
   (+) Dipole Moment


------------------------------------------------------------------------------
                       ORCA ELECTRIC PROPERTIES CALCULATION
------------------------------------------------------------------------------

Dipole Moment Calculation                       ... on
Quadrupole Moment Calculation                   ... off
Polarizability Calculation                      ... off
GBWName                                         ... Au04C2.gbw
Electron density file                           ... Au04C2.scfp
The origin for moment calculation is the CENTER OF MASS  = ( 0.000000,  0.000000 -0.000000)

-------------
DIPOLE MOMENT
-------------
                                X             Y             Z
Electronic contribution:      0.00000       0.00004      -0.00001
Nuclear contribution   :      0.00000       0.00000       0.00000
                        -----------------------------------------
Total Dipole Moment    :      0.00000       0.00004      -0.00001
                        -----------------------------------------
Magnitude (a.u.)       :      0.00004
Magnitude (Debye)      :      0.00010



--------------------
Rotational spectrum 
--------------------
 
Rotational constants in cm-1:     0.011655     0.011655     0.011654 
Rotational constants in MHz :   349.408482   349.408217   349.388110 

 Dipole components along the rotational axes: 
x,y,z [a.u.] :    -0.000035     0.000000     0.000014 
x,y,z [Debye]:    -0.000089     0.000000     0.000037 

 

Timings for individual modules:

Sum of individual times         ...       15.148 sec (=   0.252 min)
GTO integral calculation        ...        1.975 sec (=   0.033 min)  13.0 %
SCF iterations                  ...       13.173 sec (=   0.220 min)  87.0 %
                             ****ORCA TERMINATED NORMALLY****
TOTAL RUN TIME: 0 days 0 hours 0 minutes 15 seconds 870 msec
