
                                 *****************
                                 * O   R   C   A *
                                 *****************

           --- An Ab Initio, DFT and Semiempirical electronic structure package ---

                  #######################################################
                  #                        -***-                        #
                  #          Department of theory and spectroscopy      #
                  #               Directorship: Frank Neese             #
                  #        Max Planck Institute fuer Kohlenforschung    #
                  #                Kaiser Wilhelm Platz 1               #
                  #                 D-45470 Muelheim/Ruhr               #
                  #                      Germany                        #
                  #                                                     #
                  #                  All rights reserved                #
                  #                        -***-                        #
                  #######################################################


                         Program Version 4.2.0 -  RELEASE  -


 With contributions from (in alphabetic order):
   Daniel Aravena         : Magnetic Suceptibility
   Michael Atanasov       : Ab Initio Ligand Field Theory (pilot matlab implementation)
   Alexander A. Auer      : GIAO ZORA, VPT2
   Ute Becker             : Parallelization
   Giovanni Bistoni       : ED, misc. LED, open-shell LED, HFLED
   Martin Brehm           : Molecular dynamics
   Dmytro Bykov           : SCF Hessian
   Vijay G. Chilkuri      : MRCI spin determinant printing, contributions to CSF-ICE
   Dipayan Datta          : RHF DLPNO-CCSD density
   Achintya Kumar Dutta   : EOM-CC, STEOM-CC
   Dmitry Ganyushin       : Spin-Orbit,Spin-Spin,Magnetic field MRCI
   Miquel Garcia          : C-PCM Hessian, Gaussian charge scheme
   Yang Guo               : DLPNO-NEVPT2, CIM, IAO-localization
   Andreas Hansen         : Spin unrestricted coupled pair/coupled cluster methods
   Benjamin Helmich-Paris : CASSCF linear response (MC-RPA)
   Lee Huntington         : MR-EOM, pCC
   Robert Izsak           : Overlap fitted RIJCOSX, COSX-SCS-MP3, EOM
   Christian Kollmar      : KDIIS, OOCD, Brueckner-CCSD(T), CCSD density
   Simone Kossmann        : Meta GGA functionals, TD-DFT gradient, OOMP2, MP2 Hessian
   Martin Krupicka        : AUTO-CI
   Lucas Lang             : DCDCAS
   Dagmar Lenk            : GEPOL surface, SMD
   Dimitrios Liakos       : Extrapolation schemes; Compound Job, initial MDCI parallelization
   Dimitrios Manganas     : Further ROCIS development; embedding schemes
   Dimitrios Pantazis     : SARC Basis sets
   Taras Petrenko         : DFT Hessian,TD-DFT gradient, ASA, ECA, R-Raman, ABS, FL, XAS/XES, NRVS
   Peter Pinski           : DLPNO-MP2, DLPNO-MP2 Gradient
   Christoph Reimann      : Effective Core Potentials
   Marius Retegan         : Local ZFS, SOC
   Christoph Riplinger    : Optimizer, TS searches, QM/MM, DLPNO-CCSD(T), (RO)-DLPNO pert. Triples
   Tobias Risthaus        : Range-separated hybrids, TD-DFT gradient, RPA, STAB
   Michael Roemelt        : Original ROCIS implementation
   Masaaki Saitow         : Open-shell DLPNO-CCSD energy and density
   Barbara Sandhoefer     : DKH picture change effects
   Avijit Sen             : IP-ROCIS
   Kantharuban Sivalingam : CASSCF convergence, NEVPT2, FIC-MRCI
   Bernardo de Souza      : ESD, SOC TD-DFT
   Georgi Stoychev        : AutoAux, RI-MP2 NMR
   Willem Van den Heuvel  : Paramagnetic NMR
   Boris Wezisla          : Elementary symmetry handling
   Frank Wennmohs         : Technical directorship


 We gratefully acknowledge several colleagues who have allowed us to
 interface, adapt or use parts of their codes:
   Stefan Grimme, W. Hujo, H. Kruse,             : VdW corrections, initial TS optimization,
                  C. Bannwarth                     DFT functionals, gCP, sTDA/sTD-DF
   Ed Valeev, F. Pavosevic, A. Kumar             : LibInt (2-el integral package), F12 methods
   Garnet Chan, S. Sharma, J. Yang, R. Olivares  : DMRG
   Ulf Ekstrom                                   : XCFun DFT Library
   Mihaly Kallay                                 : mrcc  (arbitrary order and MRCC methods)
   Andreas Klamt, Michael Diedenhofen            : otool_cosmo (COSMO solvation model)
   Jiri Pittner, Ondrej Demel                    : Mk-CCSD
   Frank Weinhold                                : gennbo (NPA and NBO analysis)
   Christopher J. Cramer and Donald G. Truhlar   : smd solvation model
   Lars Goerigk                                  : TD-DFT with DH, B97 family of functionals
   V. Asgeirsson, H. Jonsson                     : NEB implementation
   FAccTs GmbH                                   : IRC, NEB, NEB-TS, Multilevel, MM, QM/MM, CI optimization
   S Lehtola, MJT Oliveira, MAL Marques          : LibXC Library


 Your calculation uses the libint2 library for the computation of 2-el integrals
 For citations please refer to: http://libint.valeyev.net

 Your ORCA version has been built with support for libXC version: 4.2.3
 For citations please refer to: https://tddft.org/programs/libxc/

 This ORCA versions uses:
   CBLAS   interface :  Fast vector & matrix operations
   LAPACKE interface :  Fast linear algebra routines
   SCALAPACK package :  Parallel linear algebra routines


Your calculation utilizes the atom-pairwise dispersion correction
with the Becke-Johnson damping scheme (D3BJ)
Cite in your paper:
S.Grimme, S.Ehrlich, L.Goerigk, J Comput Chem, (2011), 32, 1456–1465 
S.Grimme, J.Antony, S.Ehrlich and H.Krieg, J.Chem.Phys., 132, (2010), 154104 
   

----- Orbital basis set information -----
Your calculation utilizes the basis: def2-TZVPPD
   F. Weigend and R. Ahlrichs, Phys. Chem. Chem. Phys. 7, 3297 (2005).
   D. Rappoport and F. Furche, J. Chem. Phys. 133 134105 (2010).

----- AuxJK basis set information -----
Your calculation utilizes the auxiliary basis: def2/JK
   H-Ba, Hf-Rn: F. Weigend, J. Comput. Chem. 29, 167 (2008).

================================================================================
                                        WARNINGS
                       Please study these warnings very carefully!
================================================================================


WARNING: your system is open-shell and RHF/RKS was chosen
  ===> : WILL SWITCH to UHF/UKS


INFO   : the flag for use of LIBINT has been found!

================================================================================
                                       INPUT FILE
================================================================================
NAME = Cu03N0_LIN.in
|  1> #
|  2> # Cu03N0_LIN TPSSh-D3BJ/Def2-TZVPPD
|  3> #
|  4> ! tpssh d3bj def2-tzvppd def2/jk grid4 nofinalgrid
|  5> 
|  6> *xyz 0 2
|  7> Cu       0.000000    0.000000    0.000000 
|  8> Cu       0.000000    0.000000    2.291099 
|  9> Cu       0.000000    0.000000   -2.291099 
| 10> *
| 11> 
| 12> %maxcore 5000
| 13> 
| 14> %pal
| 15> nprocs = 24
| 16> end
| 17> 
| 18> 
| 19>                          ****END OF INPUT****
================================================================================

                       ****************************
                       * Single Point Calculation *
                       ****************************

---------------------------------
CARTESIAN COORDINATES (ANGSTROEM)
---------------------------------
  Cu     0.000000    0.000000    0.000000
  Cu     0.000000    0.000000    2.291099
  Cu     0.000000    0.000000   -2.291099

----------------------------
CARTESIAN COORDINATES (A.U.)
----------------------------
  NO LB      ZA    FRAG     MASS         X           Y           Z
   0 Cu   29.0000    0    63.550    0.000000    0.000000    0.000000
   1 Cu   29.0000    0    63.550    0.000000    0.000000    4.329550
   2 Cu   29.0000    0    63.550    0.000000    0.000000   -4.329550

--------------------------------
INTERNAL COORDINATES (ANGSTROEM)
--------------------------------
 Cu     0   0   0     0.000000000000     0.00000000     0.00000000
 Cu     1   0   0     2.291099000000     0.00000000     0.00000000
 Cu     1   2   0     2.291099000000   180.00000000     0.00000000

---------------------------
INTERNAL COORDINATES (A.U.)
---------------------------
 Cu     0   0   0     0.000000000000     0.00000000     0.00000000
 Cu     1   0   0     4.329549655701     0.00000000     0.00000000
 Cu     1   2   0     4.329549655701   180.00000000     0.00000000

---------------------
BASIS SET INFORMATION
---------------------
There are 1 groups of distinct atoms

 Group   1 Type Cu  : 17s13p7d2f1g contracted to 6s6p4d2f1g pattern {842111/631111/4111/11/1}

Atom   0Cu   basis set group =>   1
Atom   1Cu   basis set group =>   1
Atom   2Cu   basis set group =>   1
----------------------------------
AUXILIARY/JK BASIS SET INFORMATION
----------------------------------
There are 1 groups of distinct atoms

 Group   1 Type Cu  : 19s14p12d10f7g3h1i contracted to 16s13p11d9f5g3h1i pattern {4111111111111111/2111111111111/21111111111/211111111/31111/111/1}

Atom   0Cu   basis set group =>   1
Atom   1Cu   basis set group =>   1
Atom   2Cu   basis set group =>   1


           ************************************************************
           *        Program running with 24 parallel MPI-processes    *
           *              working on a common directory               *
           ************************************************************
------------------------------------------------------------------------------
                           ORCA GTO INTEGRAL CALCULATION
------------------------------------------------------------------------------

                         BASIS SET STATISTICS AND STARTUP INFO

 # of primitive gaussian shells          ...  120
 # of primitive gaussian functions       ...  342
 # of contracted shells                  ...   57
 # of contracted basis functions         ...  201
 Highest angular momentum                ...    4
 Maximum contraction depth               ...    8
 Integral package used                   ... LIBINT
 Integral threshhold            Thresh   ...  1.000e-10
 Primitive cut-off              TCut     ...  1.000e-11


------------------------------ INTEGRAL EVALUATION ----------------------------


 * One electron integrals 
 Pre-screening matrix                    ... done
 Shell pair data                         ... done (   0.000 sec)



           ************************************************************
           *        Program running with 24 parallel MPI-processes    *
           *              working on a common directory               *
           ************************************************************
-------------------------------------------------------------------------------
                                 ORCA SCF
-------------------------------------------------------------------------------

------------
SCF SETTINGS
------------
Hamiltonian:
 Density Functional     Method          .... DFT(GTOs)
 Exchange Functional    Exchange        .... TPSS
 Correlation Functional Correlation     .... TPSS
 LDA part of GGA corr.  LDAOpt          .... PW91-LDA
 Gradients option       PostSCFGGA      .... off
 Hybrid DFT is turned on
   Fraction HF Exchange ScalHFX         ....  0.100000
   Scaling of DF-GGA-X  ScalDFX         ....  0.900000
   Scaling of DF-GGA-C  ScalDFC         ....  1.000000
   Scaling of DF-LDA-C  ScalLDAC        ....  1.000000
   Perturbative correction              ....  0.000000
   Density functional embedding theory  .... OFF
   NL short-range parameter             ....  5.200000


General Settings:
 Integral files         IntName         .... Cu03N0_LIN
 Hartree-Fock type      HFTyp           .... UHF
 Total Charge           Charge          ....    0
 Multiplicity           Mult            ....    2
 Number of Electrons    NEL             ....   87
 Basis Dimension        Dim             ....  201
 Nuclear Repulsion      ENuc            ....    485.6163266846 Eh

Convergence Acceleration:
 DIIS                   CNVDIIS         .... on
   Start iteration      DIISMaxIt       ....    12
   Startup error        DIISStart       ....  0.200000
   # of expansion vecs  DIISMaxEq       ....     5
   Bias factor          DIISBfac        ....   1.050
   Max. coefficient     DIISMaxC        ....  10.000
 Newton-Raphson         CNVNR           .... off
 SOSCF                  CNVSOSCF        .... off
 Level Shifting         CNVShift        .... on
   Level shift para.    LevelShift      ....    0.2500
   Turn off err/grad.   ShiftErr        ....    0.0010
 Zerner damping         CNVZerner       .... off
 Static damping         CNVDamp         .... on
   Fraction old density DampFac         ....    0.7000
   Max. Damping (<1)    DampMax         ....    0.9800
   Min. Damping (>=0)   DampMin         ....    0.0000
   Turn off err/grad.   DampErr         ....    0.1000
 Fernandez-Rico         CNVRico         .... off

SCF Procedure:
 Maximum # iterations   MaxIter         ....   125
 SCF integral mode      SCFMode         .... Direct
   Integral package                     .... LIBINT
 Reset frequency        DirectResetFreq ....    20
 Integral Threshold     Thresh          ....  1.000e-10 Eh
 Primitive CutOff       TCut            ....  1.000e-11 Eh

Convergence Tolerance:
 Convergence Check Mode ConvCheckMode   .... Total+1el-Energy
 Convergence forced     ConvForced      .... 0
 Energy Change          TolE            ....  1.000e-06 Eh
 1-El. energy change                    ....  1.000e-03 Eh
 DIIS Error             TolErr          ....  1.000e-06


Diagonalization of the overlap matrix:
Smallest eigenvalue                        ... 3.321e-04
Time for diagonalization                   ...    0.008 sec
Threshold for overlap eigenvalues          ... 1.000e-08
Number of eigenvalues below threshold      ... 0
Time for construction of square roots      ...    0.005 sec
Total time needed                          ...    0.013 sec

-------------------
DFT GRID GENERATION
-------------------

General Integration Accuracy     IntAcc      ...  4.670
Radial Grid Type                 RadialGrid  ... Gauss-Chebyshev
Angular Grid (max. acc.)         AngularGrid ... Lebedev-302
Angular grid pruning method      GridPruning ... 3 (G Style)
Weight generation scheme         WeightScheme... Becke
Basis function cutoff            BFCut       ...    1.0000e-10
Integration weight cutoff        WCut        ...    1.0000e-14
Grids for H and He will be reduced by one unit

# of grid points (after initial pruning)     ...  28668 (   0.0 sec)
# of grid points (after weights+screening)   ...  28508 (   0.0 sec)
nearest neighbour list constructed           ...    0.0 sec
Grid point re-assignment to atoms done       ...    0.0 sec
Grid point division into batches done        ...    0.2 sec
Reduced shell lists constructed in    0.2 sec

Total number of grid points                  ...    28508
Total number of batches                      ...      447
Average number of points per batch           ...       63
Average number of grid points per atom       ...     9503
Average number of shells per batch           ...    18.10 (31.75%)
Average number of basis functions per batch  ...    52.30 (26.02%)
Average number of large shells per batch     ...    15.95 (88.12%)
Average number of large basis fcns per batch ...    46.25 (88.43%)
Maximum spatial batch extension              ...  26.18, 26.18,  4.32 au
Average spatial batch extension              ...   0.42,  0.42,  0.18 au

Time for grid setup =    0.264 sec

------------------------------
INITIAL GUESS: MODEL POTENTIAL
------------------------------
Loading Hartree-Fock densities                     ... done
Calculating cut-offs                               ... done
Setting up the integral package                    ... done
Initializing the effective Hamiltonian             ... done
Starting the Coulomb interaction                   ... done (   0.0 sec)
Reading the grid                                   ... done
Mapping shells                                     ... done
Starting the XC term evaluation                    ... done (   0.0 sec)
  promolecular density results
     # of electrons  =     87.000073666
     EX              =   -196.438204401
     EC              =     -4.046522291
     EX+EC           =   -200.484726692
Transforming the Hamiltonian                       ... done (   0.0 sec)
Diagonalizing the Hamiltonian                      ... done (   0.0 sec)
Back transforming the eigenvectors                 ... done (   0.0 sec)
Now organizing SCF variables                       ... done
                      ------------------
                      INITIAL GUESS DONE (   0.4 sec)
                      ------------------
--------------
SCF ITERATIONS
--------------
ITER       Energy         Delta-E        Max-DP      RMS-DP      [F,P]     Damp
               ***  Starting incremental Fock matrix formation  ***
  0  -4921.4461408894   0.000000000000 0.08207179  0.00105216  0.2027253 0.7000
  1  -4921.5022516865  -0.056110797120 0.05835468  0.00059256  0.0563050 0.7000
                               ***Turning on DIIS***
  2  -4921.5225750577  -0.020323371222 0.11677561  0.00106201  0.0530886 0.0000
  3  -4921.5671112139  -0.044536156242 0.01698206  0.00030252  0.0993350 0.0000
  4  -4921.5776712400  -0.010560026100 0.01314075  0.00018273  0.0122414 0.0000
  5  -4921.5782898601  -0.000618620054 0.00578118  0.00009037  0.0149534 0.0000
  6  -4921.5785113131  -0.000221452990 0.00291544  0.00004575  0.0043614 0.0000
  7  -4921.5785690883  -0.000057775202 0.00454505  0.00005995  0.0006166 0.0000
  8  -4921.5786038763  -0.000034788052 0.00249893  0.00001993  0.0006515 0.0000
  9  -4921.5786089334  -0.000005057074 0.00126189  0.00001139  0.0001385 0.0000
 10  -4921.5786098045  -0.000000871085 0.00029929  0.00000218  0.0000598 0.0000
 11  -4921.5786098455  -0.000000041040 0.00004155  0.00000056  0.0001018 0.0000
                 **** Energy Check signals convergence ****

               *****************************************************
               *                     SUCCESS                       *
               *           SCF CONVERGED AFTER  12 CYCLES          *
               *****************************************************


----------------
TOTAL SCF ENERGY
----------------

Total Energy       :        -4921.57860986 Eh         -133922.96249 eV

Components:
Nuclear Repulsion  :          485.61632668 Eh           13214.29205 eV
Electronic Energy  :        -5407.19493654 Eh         -147137.25454 eV
One Electron Energy:        -7832.88811691 Eh         -213143.72168 eV
Two Electron Energy:         2425.69318037 Eh           66006.46714 eV

Virial components:
Potential Energy   :        -9835.45894896 Eh         -267636.44438 eV
Kinetic Energy     :         4913.88033911 Eh          133713.48189 eV
Virial Ratio       :            2.00156664


DFT components:
N(Alpha)           :       44.000003860199 electrons
N(Beta)            :       42.999999736589 electrons
N(Total)           :       87.000003596788 electrons
E(X)               :     -177.809309745910 Eh       
E(C)               :       -4.080812932460 Eh       
E(XC)              :     -181.890122678370 Eh       
DFET-embed. en.    :        0.000000000000 Eh       

---------------
SCF CONVERGENCE
---------------

  Last Energy change         ...   -1.1113e-08  Tolerance :   1.0000e-06
  Last MAX-Density change    ...    5.6731e-05  Tolerance :   1.0000e-05
  Last RMS-Density change    ...    6.4363e-07  Tolerance :   1.0000e-06
  Last DIIS Error            ...    1.3882e-05  Tolerance :   1.0000e-06

             **** THE GBW FILE WAS UPDATED (Cu03N0_LIN.gbw) ****
             **** DENSITY FILE WAS UPDATED (Cu03N0_LIN.scfp) ****
             **** ENERGY FILE WAS UPDATED (Cu03N0_LIN.en.tmp) ****
----------------------
UHF SPIN CONTAMINATION
----------------------

Warning: in a DFT calculation there is little theoretical justification to 
         calculate <S**2> as in Hartree-Fock theory. We will do it anyways
         but you should keep in mind that the values have only limited relevance

Expectation value of <S**2>     :     0.761566
Ideal value S*(S+1) for S=0.5   :     0.750000
Deviation                       :     0.011566

             **** THE GBW FILE WAS UPDATED (Cu03N0_LIN.gbw) ****
             **** DENSITY FILE WAS UPDATED (Cu03N0_LIN.scfp) ****
----------------
ORBITAL ENERGIES
----------------
                 SPIN UP ORBITALS
  NO   OCC          E(Eh)            E(eV) 
   0   1.0000    -322.753093     -8782.5582 
   1   1.0000    -322.753090     -8782.5581 
   2   1.0000    -322.739882     -8782.1987 
   3   1.0000     -38.625026     -1051.0404 
   4   1.0000     -38.625005     -1051.0398 
   5   1.0000     -38.616036     -1050.7958 
   6   1.0000     -33.802992      -919.8262 
   7   1.0000     -33.802989      -919.8261 
   8   1.0000     -33.801108      -919.7749 
   9   1.0000     -33.801108      -919.7749 
  10   1.0000     -33.801105      -919.7748 
  11   1.0000     -33.801105      -919.7748 
  12   1.0000     -33.793472      -919.5671 
  13   1.0000     -33.791801      -919.5217 
  14   1.0000     -33.791801      -919.5217 
  15   1.0000      -4.226544      -115.0101 
  16   1.0000      -4.226531      -115.0098 
  17   1.0000      -4.215411      -114.7072 
  18   1.0000      -2.722121       -74.0727 
  19   1.0000      -2.721476       -74.0551 
  20   1.0000      -2.716040       -73.9072 
  21   1.0000      -2.716040       -73.9072 
  22   1.0000      -2.716036       -73.9071 
  23   1.0000      -2.716036       -73.9071 
  24   1.0000      -2.709475       -73.7286 
  25   1.0000      -2.704397       -73.5904 
  26   1.0000      -2.704397       -73.5904 
  27   1.0000      -0.279724        -7.6117 
  28   1.0000      -0.248683        -6.7670 
  29   1.0000      -0.248683        -6.7670 
  30   1.0000      -0.236232        -6.4282 
  31   1.0000      -0.233730        -6.3601 
  32   1.0000      -0.233730        -6.3601 
  33   1.0000      -0.229218        -6.2373 
  34   1.0000      -0.229211        -6.2371 
  35   1.0000      -0.227624        -6.1940 
  36   1.0000      -0.227617        -6.1938 
  37   1.0000      -0.218846        -5.9551 
  38   1.0000      -0.210692        -5.7332 
  39   1.0000      -0.210681        -5.7329 
  40   1.0000      -0.202070        -5.4986 
  41   1.0000      -0.202070        -5.4986 
  42   1.0000      -0.197432        -5.3724 
  43   1.0000      -0.185952        -5.0600 
  44   0.0000      -0.076066        -2.0699 
  45   0.0000      -0.044336        -1.2064 
  46   0.0000      -0.044336        -1.2064 
  47   0.0000      -0.016298        -0.4435 
  48   0.0000      -0.004428        -0.1205 
  49   0.0000      -0.004428        -0.1205 
  50   0.0000       0.050125         1.3640 
  51   0.0000       0.055476         1.5096 
  52   0.0000       0.061252         1.6667 
  53   0.0000       0.061252         1.6667 
  54   0.0000       0.076971         2.0945 
  55   0.0000       0.107457         2.9240 
  56   0.0000       0.107457         2.9240 
  57   0.0000       0.120099         3.2681 
  58   0.0000       0.126101         3.4314 
  59   0.0000       0.126101         3.4314 
  60   0.0000       0.154307         4.1989 
  61   0.0000       0.154308         4.1989 
  62   0.0000       0.175764         4.7828 
  63   0.0000       0.188540         5.1304 
  64   0.0000       0.188540         5.1304 
  65   0.0000       0.188562         5.1310 
  66   0.0000       0.188562         5.1310 
  67   0.0000       0.203777         5.5451 
  68   0.0000       0.221725         6.0334 
  69   0.0000       0.221725         6.0334 
  70   0.0000       0.230579         6.2744 
  71   0.0000       0.278910         7.5895 
  72   0.0000       0.278910         7.5895 
  73   0.0000       0.283341         7.7101 
  74   0.0000       0.330649         8.9974 
  75   0.0000       0.330649         8.9974 
  76   0.0000       0.357037         9.7155 
  77   0.0000       0.445147        12.1131 
  78   0.0000       0.445147        12.1131 
  79   0.0000       0.476527        12.9669 
  80   0.0000       0.541929        14.7466 
  81   0.0000       0.600925        16.3520 
  82   0.0000       0.647419        17.6172 
  83   0.0000       0.647419        17.6172 
  84   0.0000       0.670734        18.2516 
  85   0.0000       0.670734        18.2516 
  86   0.0000       0.736051        20.0290 
  87   0.0000       0.736051        20.0290 
  88   0.0000       0.753899        20.5146 
  89   0.0000       0.841456        22.8972 
  90   0.0000       0.841457        22.8972 
  91   0.0000       0.881163        23.9777 
  92   0.0000       0.881165        23.9777 
  93   0.0000       0.881632        23.9904 
  94   0.0000       0.883488        24.0409 
  95   0.0000       0.883488        24.0409 
  96   0.0000       0.939034        25.5524 
  97   0.0000       0.940866        25.6023 
  98   0.0000       0.940866        25.6023 
  99   0.0000       0.957863        26.0648 
 100   0.0000       0.957868        26.0649 
 101   0.0000       1.151937        31.3458 
 102   0.0000       1.151937        31.3458 
 103   0.0000       1.185142        32.2493 
 104   0.0000       1.472495        40.0686 
 105   0.0000       2.935897        79.8898 
 106   0.0000       2.947728        80.2118 
 107   0.0000       2.947728        80.2118 
 108   0.0000       3.042176        82.7818 
 109   0.0000       3.047462        82.9257 
 110   0.0000       3.047462        82.9257 
 111   0.0000       3.072774        83.6144 
 112   0.0000       3.072774        83.6144 
 113   0.0000       3.116726        84.8104 
 114   0.0000       3.193804        86.9078 
 115   0.0000       3.332788        90.6898 
 116   0.0000       3.361330        91.4664 
 117   0.0000       3.396773        92.4309 
 118   0.0000       3.396773        92.4309 
 119   0.0000       3.401232        92.5522 
 120   0.0000       3.401232        92.5522 
 121   0.0000       3.413061        92.8741 
 122   0.0000       3.413071        92.8744 
 123   0.0000       3.414128        92.9032 
 124   0.0000       3.414138        92.9034 
 125   0.0000       3.416303        92.9623 
 126   0.0000       3.416303        92.9623 
 127   0.0000       3.416305        92.9624 
 128   0.0000       3.416305        92.9624 
 129   0.0000       3.435727        93.4909 
 130   0.0000       3.435742        93.4913 
 131   0.0000       3.439528        93.5943 
 132   0.0000       3.439528        93.5943 
 133   0.0000       3.455764        94.0361 
 134   0.0000       3.455764        94.0361 
 135   0.0000       3.462240        94.2123 
 136   0.0000       3.553504        96.6958 
 137   0.0000       3.628539        98.7376 
 138   0.0000       3.628599        98.7392 
 139   0.0000       3.652510        99.3899 
 140   0.0000       3.652564        99.3913 
 141   0.0000       3.696308       100.5817 
 142   0.0000       3.696308       100.5817 
 143   0.0000       3.703217       100.7696 
 144   0.0000       3.703278       100.7713 
 145   0.0000       3.756034       102.2069 
 146   0.0000       3.760816       102.3370 
 147   0.0000       3.760816       102.3370 
 148   0.0000       3.858391       104.9922 
 149   0.0000       3.858391       104.9922 
 150   0.0000       3.989380       108.5566 
 151   0.0000       4.083850       111.1272 
 152   0.0000       4.431916       120.5986 
 153   0.0000      12.990016       353.4763 
 154   0.0000      12.990016       353.4763 
 155   0.0000      12.990794       353.4975 
 156   0.0000      12.990794       353.4975 
 157   0.0000      12.990840       353.4987 
 158   0.0000      12.990899       353.5003 
 159   0.0000      12.990986       353.5027 
 160   0.0000      12.991289       353.5109 
 161   0.0000      12.991754       353.5236 
 162   0.0000      12.991815       353.5252 
 163   0.0000      12.993237       353.5640 
 164   0.0000      12.993237       353.5640 
 165   0.0000      12.993247       353.5642 
 166   0.0000      12.993247       353.5642 
 167   0.0000      12.994927       353.6099 
 168   0.0000      12.994927       353.6099 
 169   0.0000      12.995128       353.6154 
 170   0.0000      12.995128       353.6154 
 171   0.0000      13.003125       353.8330 
 172   0.0000      13.003125       353.8330 
 173   0.0000      13.003308       353.8380 
 174   0.0000      13.004763       353.8776 
 175   0.0000      13.006062       353.9129 
 176   0.0000      13.006465       353.9239 
 177   0.0000      13.006465       353.9239 
 178   0.0000      13.008894       353.9900 
 179   0.0000      13.009168       353.9975 
 180   0.0000      13.093485       356.2918 
 181   0.0000      13.093485       356.2918 
 182   0.0000      13.096140       356.3641 
 183   0.0000      13.096343       356.3696 
 184   0.0000      13.097292       356.3954 
 185   0.0000      13.097492       356.4009 
 186   0.0000      13.099301       356.4501 
 187   0.0000      13.099301       356.4501 
 188   0.0000      13.099301       356.4501 
 189   0.0000      13.099301       356.4501 
 190   0.0000      13.099514       356.4559 
 191   0.0000      13.107827       356.6821 
 192   0.0000      13.108087       356.6892 
 193   0.0000      13.109365       356.7239 
 194   0.0000      13.109365       356.7239 
 195   0.0000      13.110676       356.7596 
 196   0.0000      13.110676       356.7596 
 197   0.0000      13.124918       357.1472 
 198   0.0000      13.124918       357.1472 
 199   0.0000      13.190724       358.9378 
 200   0.0000      13.228037       359.9532 

                 SPIN DOWN ORBITALS
  NO   OCC          E(Eh)            E(eV) 
   0   1.0000    -322.752466     -8782.5411 
   1   1.0000    -322.752463     -8782.5410 
   2   1.0000    -322.739831     -8782.1973 
   3   1.0000     -38.625617     -1051.0565 
   4   1.0000     -38.625596     -1051.0559 
   5   1.0000     -38.616445     -1050.8069 
   6   1.0000     -33.803730      -919.8463 
   7   1.0000     -33.803727      -919.8462 
   8   1.0000     -33.801550      -919.7869 
   9   1.0000     -33.801550      -919.7869 
  10   1.0000     -33.801547      -919.7869 
  11   1.0000     -33.801547      -919.7869 
  12   1.0000     -33.793705      -919.5735 
  13   1.0000     -33.792057      -919.5286 
  14   1.0000     -33.792057      -919.5286 
  15   1.0000      -4.227282      -115.0302 
  16   1.0000      -4.227272      -115.0299 
  17   1.0000      -4.216214      -114.7290 
  18   1.0000      -2.721749       -74.0626 
  19   1.0000      -2.721060       -74.0438 
  20   1.0000      -2.717623       -73.9503 
  21   1.0000      -2.717623       -73.9503 
  22   1.0000      -2.717617       -73.9501 
  23   1.0000      -2.717617       -73.9501 
  24   1.0000      -2.710080       -73.7450 
  25   1.0000      -2.705204       -73.6123 
  26   1.0000      -2.705204       -73.6123 
  27   1.0000      -0.273762        -7.4494 
  28   1.0000      -0.246488        -6.7073 
  29   1.0000      -0.246488        -6.7073 
  30   1.0000      -0.233543        -6.3550 
  31   1.0000      -0.231091        -6.2883 
  32   1.0000      -0.231091        -6.2883 
  33   1.0000      -0.226564        -6.1651 
  34   1.0000      -0.226556        -6.1649 
  35   1.0000      -0.224780        -6.1166 
  36   1.0000      -0.224773        -6.1164 
  37   1.0000      -0.211315        -5.7502 
  38   1.0000      -0.211304        -5.7499 
  39   1.0000      -0.202083        -5.4990 
  40   1.0000      -0.202083        -5.4990 
  41   1.0000      -0.200448        -5.4545 
  42   1.0000      -0.197593        -5.3768 
  43   0.0000      -0.141910        -3.8616 
  44   0.0000      -0.059459        -1.6180 
  45   0.0000      -0.032674        -0.8891 
  46   0.0000      -0.032674        -0.8891 
  47   0.0000      -0.001417        -0.0386 
  48   0.0000       0.012029         0.3273 
  49   0.0000       0.012029         0.3273 
  50   0.0000       0.062158         1.6914 
  51   0.0000       0.067551         1.8382 
  52   0.0000       0.068041         1.8515 
  53   0.0000       0.068041         1.8515 
  54   0.0000       0.082198         2.2367 
  55   0.0000       0.117842         3.2066 
  56   0.0000       0.117842         3.2066 
  57   0.0000       0.128355         3.4927 
  58   0.0000       0.143552         3.9063 
  59   0.0000       0.143552         3.9063 
  60   0.0000       0.160790         4.3753 
  61   0.0000       0.160790         4.3753 
  62   0.0000       0.184532         5.0214 
  63   0.0000       0.197741         5.3808 
  64   0.0000       0.197741         5.3808 
  65   0.0000       0.199101         5.4178 
  66   0.0000       0.199102         5.4178 
  67   0.0000       0.213872         5.8197 
  68   0.0000       0.230773         6.2797 
  69   0.0000       0.230773         6.2797 
  70   0.0000       0.241862         6.5814 
  71   0.0000       0.283470         7.7136 
  72   0.0000       0.283471         7.7136 
  73   0.0000       0.291844         7.9415 
  74   0.0000       0.339737         9.2447 
  75   0.0000       0.339737         9.2447 
  76   0.0000       0.364404         9.9159 
  77   0.0000       0.454732        12.3739 
  78   0.0000       0.454732        12.3739 
  79   0.0000       0.482048        13.1172 
  80   0.0000       0.551611        15.0101 
  81   0.0000       0.610441        16.6109 
  82   0.0000       0.655355        17.8331 
  83   0.0000       0.655355        17.8331 
  84   0.0000       0.682703        18.5773 
  85   0.0000       0.682703        18.5773 
  86   0.0000       0.741583        20.1795 
  87   0.0000       0.741583        20.1795 
  88   0.0000       0.761861        20.7313 
  89   0.0000       0.853581        23.2271 
  90   0.0000       0.853583        23.2272 
  91   0.0000       0.890177        24.2229 
  92   0.0000       0.894464        24.3396 
  93   0.0000       0.894464        24.3396 
  94   0.0000       0.902164        24.5491 
  95   0.0000       0.902167        24.5492 
  96   0.0000       0.952502        25.9189 
  97   0.0000       0.956598        26.0303 
  98   0.0000       0.956598        26.0303 
  99   0.0000       0.965237        26.2654 
 100   0.0000       0.965243        26.2656 
 101   0.0000       1.161639        31.6098 
 102   0.0000       1.161639        31.6098 
 103   0.0000       1.197972        32.5985 
 104   0.0000       1.480844        40.2958 
 105   0.0000       2.940410        80.0126 
 106   0.0000       2.952053        80.3294 
 107   0.0000       2.952053        80.3294 
 108   0.0000       3.044908        82.8562 
 109   0.0000       3.053415        83.0876 
 110   0.0000       3.053415        83.0876 
 111   0.0000       3.074342        83.6571 
 112   0.0000       3.074342        83.6571 
 113   0.0000       3.121010        84.9270 
 114   0.0000       3.197768        87.0157 
 115   0.0000       3.337611        90.8210 
 116   0.0000       3.363987        91.5387 
 117   0.0000       3.397919        92.4621 
 118   0.0000       3.397919        92.4621 
 119   0.0000       3.403928        92.6256 
 120   0.0000       3.403928        92.6256 
 121   0.0000       3.416453        92.9664 
 122   0.0000       3.416457        92.9665 
 123   0.0000       3.417697        93.0003 
 124   0.0000       3.417701        93.0004 
 125   0.0000       3.421442        93.1022 
 126   0.0000       3.421442        93.1022 
 127   0.0000       3.421444        93.1022 
 128   0.0000       3.421444        93.1022 
 129   0.0000       3.435499        93.4847 
 130   0.0000       3.435513        93.4851 
 131   0.0000       3.438994        93.5798 
 132   0.0000       3.438994        93.5798 
 133   0.0000       3.458024        94.0976 
 134   0.0000       3.458024        94.0976 
 135   0.0000       3.463998        94.2602 
 136   0.0000       3.555458        96.7489 
 137   0.0000       3.631165        98.8090 
 138   0.0000       3.631220        98.8105 
 139   0.0000       3.656753        99.5053 
 140   0.0000       3.656802        99.5066 
 141   0.0000       3.699446       100.6671 
 142   0.0000       3.699446       100.6671 
 143   0.0000       3.704224       100.7970 
 144   0.0000       3.704282       100.7986 
 145   0.0000       3.758844       102.2833 
 146   0.0000       3.763789       102.4179 
 147   0.0000       3.763789       102.4179 
 148   0.0000       3.859131       105.0123 
 149   0.0000       3.859131       105.0123 
 150   0.0000       3.992885       108.6519 
 151   0.0000       4.086892       111.2100 
 152   0.0000       4.434539       120.6699 
 153   0.0000      12.989052       353.4501 
 154   0.0000      12.989052       353.4501 
 155   0.0000      12.989685       353.4673 
 156   0.0000      12.989744       353.4689 
 157   0.0000      12.989825       353.4711 
 158   0.0000      12.989825       353.4711 
 159   0.0000      12.990100       353.4786 
 160   0.0000      12.990406       353.4869 
 161   0.0000      12.990601       353.4922 
 162   0.0000      12.990662       353.4939 
 163   0.0000      12.991895       353.5274 
 164   0.0000      12.991895       353.5274 
 165   0.0000      12.991908       353.5278 
 166   0.0000      12.991908       353.5278 
 167   0.0000      12.993589       353.5735 
 168   0.0000      12.993589       353.5735 
 169   0.0000      12.993790       353.5790 
 170   0.0000      12.993790       353.5790 
 171   0.0000      13.002479       353.8154 
 172   0.0000      13.002479       353.8154 
 173   0.0000      13.002505       353.8161 
 174   0.0000      13.003962       353.8558 
 175   0.0000      13.005505       353.8978 
 176   0.0000      13.005630       353.9012 
 177   0.0000      13.005630       353.9012 
 178   0.0000      13.008482       353.9788 
 179   0.0000      13.008756       353.9862 
 180   0.0000      13.093273       356.2861 
 181   0.0000      13.093273       356.2861 
 182   0.0000      13.094925       356.3310 
 183   0.0000      13.095126       356.3365 
 184   0.0000      13.096073       356.3623 
 185   0.0000      13.096272       356.3677 
 186   0.0000      13.097081       356.3897 
 187   0.0000      13.097081       356.3897 
 188   0.0000      13.097081       356.3897 
 189   0.0000      13.097081       356.3897 
 190   0.0000      13.099616       356.4587 
 191   0.0000      13.106613       356.6491 
 192   0.0000      13.106873       356.6562 
 193   0.0000      13.108656       356.7047 
 194   0.0000      13.108656       356.7047 
 195   0.0000      13.110497       356.7548 
 196   0.0000      13.110497       356.7548 
 197   0.0000      13.124338       357.1314 
 198   0.0000      13.124338       357.1314 
 199   0.0000      13.190868       358.9418 
 200   0.0000      13.227862       359.9484 

                    ********************************
                    * MULLIKEN POPULATION ANALYSIS *
                    ********************************

--------------------------------------------
MULLIKEN ATOMIC CHARGES AND SPIN POPULATIONS
--------------------------------------------
   0 Cu:   -0.315264   -0.159773
   1 Cu:    0.157624    0.579889
   2 Cu:    0.157640    0.579884
Sum of atomic charges         :   -0.0000000
Sum of atomic spin populations:    1.0000000

-----------------------------------------------------
MULLIKEN REDUCED ORBITAL CHARGES AND SPIN POPULATIONS
-----------------------------------------------------
CHARGE
  0 Cus       :     7.390974  s :     7.390974
      pz      :     3.963797  p :    12.003437
      px      :     4.019820
      py      :     4.019820
      dz2     :     1.975913  d :     9.920566
      dxz     :     1.972566
      dyz     :     1.972566
      dx2y2   :     1.999760
      dxy     :     1.999760
      f0      :     0.000117  f :     0.000285
      f+1     :     0.000075
      f-1     :     0.000075
      f+2     :     0.000009
      f-2     :     0.000009
      f+3     :     0.000000
      f-3     :     0.000000
      g0      :     0.000000  g :     0.000001
      g+1     :     0.000000
      g-1     :     0.000000
      g+2     :     0.000000
      g-2     :     0.000000
      g+3     :     0.000000
      g-3     :     0.000000
      g+4     :     0.000000
      g-4     :     0.000000
  1 Cus       :     6.902868  s :     6.902868
      pz      :     3.975853  p :    12.002947
      px      :     4.013547
      py      :     4.013547
      dz2     :     1.955832  d :     9.936398
      dxz     :     1.990178
      dyz     :     1.990178
      dx2y2   :     2.000105
      dxy     :     2.000105
      f0      :     0.000055  f :     0.000162
      f+1     :     0.000044
      f-1     :     0.000044
      f+2     :     0.000010
      f-2     :     0.000010
      f+3     :     0.000000
      f-3     :     0.000000
      g0      :     0.000000  g :     0.000001
      g+1     :     0.000000
      g-1     :     0.000000
      g+2     :     0.000000
      g-2     :     0.000000
      g+3     :     0.000000
      g-3     :     0.000000
      g+4     :     0.000000
      g-4     :     0.000000
  2 Cus       :     6.902859  s :     6.902859
      pz      :     3.975846  p :    12.002941
      px      :     4.013547
      py      :     4.013547
      dz2     :     1.955831  d :     9.936398
      dxz     :     1.990178
      dyz     :     1.990178
      dx2y2   :     2.000105
      dxy     :     2.000105
      f0      :     0.000055  f :     0.000162
      f+1     :     0.000044
      f-1     :     0.000044
      f+2     :     0.000010
      f-2     :     0.000010
      f+3     :     0.000000
      f-3     :     0.000000
      g0      :     0.000000  g :     0.000001
      g+1     :     0.000000
      g-1     :     0.000000
      g+2     :     0.000000
      g-2     :     0.000000
      g+3     :     0.000000
      g-3     :     0.000000
      g+4     :     0.000000
      g-4     :     0.000000

SPIN
  0 Cus       :    -0.135694  s :    -0.135694
      pz      :    -0.012734  p :    -0.013307
      px      :    -0.000286
      py      :    -0.000286
      dz2     :    -0.000265  d :    -0.010780
      dxz     :    -0.005073
      dyz     :    -0.005073
      dx2y2   :    -0.000185
      dxy     :    -0.000185
      f0      :     0.000004  f :     0.000009
      f+1     :     0.000002
      f-1     :     0.000002
      f+2     :     0.000000
      f-2     :     0.000000
      f+3     :    -0.000000
      f-3     :    -0.000000
      g0      :     0.000000  g :     0.000000
      g+1     :     0.000000
      g-1     :     0.000000
      g+2     :    -0.000000
      g-2     :    -0.000000
      g+3     :    -0.000000
      g-3     :    -0.000000
      g+4     :    -0.000000
      g-4     :    -0.000000
  1 Cus       :     0.570651  s :     0.570651
      pz      :     0.002578  p :     0.007527
      px      :     0.002475
      py      :     0.002475
      dz2     :     0.001119  d :     0.001710
      dxz     :     0.000204
      dyz     :     0.000204
      dx2y2   :     0.000092
      dxy     :     0.000092
      f0      :    -0.000000  f :     0.000001
      f+1     :     0.000000
      f-1     :     0.000000
      f+2     :     0.000000
      f-2     :     0.000000
      f+3     :    -0.000000
      f-3     :    -0.000000
      g0      :     0.000000  g :     0.000000
      g+1     :     0.000000
      g-1     :     0.000000
      g+2     :    -0.000000
      g-2     :    -0.000000
      g+3     :    -0.000000
      g-3     :    -0.000000
      g+4     :     0.000000
      g-4     :     0.000000
  2 Cus       :     0.570650  s :     0.570650
      pz      :     0.002574  p :     0.007523
      px      :     0.002475
      py      :     0.002475
      dz2     :     0.001118  d :     0.001709
      dxz     :     0.000204
      dyz     :     0.000204
      dx2y2   :     0.000092
      dxy     :     0.000092
      f0      :    -0.000000  f :     0.000001
      f+1     :     0.000000
      f-1     :     0.000000
      f+2     :     0.000000
      f-2     :     0.000000
      f+3     :    -0.000000
      f-3     :    -0.000000
      g0      :     0.000000  g :     0.000000
      g+1     :     0.000000
      g-1     :     0.000000
      g+2     :    -0.000000
      g-2     :    -0.000000
      g+3     :    -0.000000
      g-3     :    -0.000000
      g+4     :     0.000000
      g-4     :    -0.000000


                     *******************************
                     * LOEWDIN POPULATION ANALYSIS *
                     *******************************

-------------------------------------------
LOEWDIN ATOMIC CHARGES AND SPIN POPULATIONS
-------------------------------------------
   0 Cu:   -0.248531    0.368692
   1 Cu:    0.124265    0.315654
   2 Cu:    0.124266    0.315654

----------------------------------------------------
LOEWDIN REDUCED ORBITAL CHARGES AND SPIN POPULATIONS
----------------------------------------------------
CHARGE
  0 Cus       :     6.735397  s :     6.735397
      pz      :     4.453349  p :    12.494003
      px      :     4.020327
      py      :     4.020327
      dz2     :     2.075174  d :    10.018371
      dxz     :     1.971825
      dyz     :     1.971825
      dx2y2   :     1.999773
      dxy     :     1.999773
      f0      :     0.000411  f :     0.000757
      f+1     :     0.000161
      f-1     :     0.000161
      f+2     :     0.000012
      f-2     :     0.000012
      f+3     :     0.000000
      f-3     :     0.000000
      g0      :     0.000001  g :     0.000002
      g+1     :     0.000001
      g-1     :     0.000001
      g+2     :     0.000000
      g-2     :     0.000000
      g+3     :     0.000000
      g-3     :     0.000000
      g+4     :     0.000000
      g-4     :     0.000000
  1 Cus       :     6.726972  s :     6.726972
      pz      :     4.131148  p :    12.161554
      px      :     4.015203
      py      :     4.015203
      dz2     :     2.009562  d :     9.986842
      dxz     :     1.988546
      dyz     :     1.988546
      dx2y2   :     2.000094
      dxy     :     2.000094
      f0      :     0.000153  f :     0.000365
      f+1     :     0.000094
      f-1     :     0.000094
      f+2     :     0.000013
      f-2     :     0.000013
      f+3     :     0.000000
      f-3     :     0.000000
      g0      :     0.000000  g :     0.000001
      g+1     :     0.000000
      g-1     :     0.000000
      g+2     :     0.000000
      g-2     :     0.000000
      g+3     :     0.000000
      g-3     :     0.000000
      g+4     :     0.000000
      g-4     :     0.000000
  2 Cus       :     6.726972  s :     6.726972
      pz      :     4.131148  p :    12.161554
      px      :     4.015203
      py      :     4.015203
      dz2     :     2.009561  d :     9.986842
      dxz     :     1.988546
      dyz     :     1.988546
      dx2y2   :     2.000094
      dxy     :     2.000094
      f0      :     0.000153  f :     0.000365
      f+1     :     0.000094
      f-1     :     0.000094
      f+2     :     0.000013
      f-2     :     0.000013
      f+3     :     0.000000
      f-3     :     0.000000
      g0      :     0.000000  g :     0.000001
      g+1     :     0.000000
      g-1     :     0.000000
      g+2     :     0.000000
      g-2     :     0.000000
      g+3     :     0.000000
      g-3     :     0.000000
      g+4     :     0.000000
      g-4     :     0.000000

SPIN
  0 Cus       :    -0.029497  s :    -0.029497
      pz      :     0.388785  p :     0.389982
      px      :     0.000599
      py      :     0.000599
      dz2     :     0.015264  d :     0.008124
      dxz     :    -0.003675
      dyz     :    -0.003675
      dx2y2   :     0.000105
      dxy     :     0.000105
      f0      :     0.000068  f :     0.000083
      f+1     :     0.000007
      f-1     :     0.000007
      f+2     :     0.000001
      f-2     :     0.000001
      f+3     :    -0.000000
      f-3     :    -0.000000
      g0      :     0.000000  g :     0.000000
      g+1     :     0.000000
      g-1     :     0.000000
      g+2     :    -0.000000
      g-2     :    -0.000000
      g+3     :    -0.000000
      g-3     :    -0.000000
      g+4     :    -0.000000
      g-4     :    -0.000000
  1 Cus       :     0.309329  s :     0.309329
      pz      :    -0.002499  p :     0.001634
      px      :     0.002066
      py      :     0.002066
      dz2     :     0.005866  d :     0.004697
      dxz     :    -0.000532
      dyz     :    -0.000532
      dx2y2   :    -0.000053
      dxy     :    -0.000053
      f0      :    -0.000006  f :    -0.000006
      f+1     :     0.000000
      f-1     :     0.000000
      f+2     :     0.000000
      f-2     :     0.000000
      f+3     :    -0.000000
      f-3     :    -0.000000
      g0      :     0.000000  g :     0.000000
      g+1     :     0.000000
      g-1     :     0.000000
      g+2     :    -0.000000
      g-2     :    -0.000000
      g+3     :    -0.000000
      g-3     :    -0.000000
      g+4     :     0.000000
      g-4     :     0.000000
  2 Cus       :     0.309329  s :     0.309329
      pz      :    -0.002499  p :     0.001634
      px      :     0.002066
      py      :     0.002066
      dz2     :     0.005866  d :     0.004697
      dxz     :    -0.000532
      dyz     :    -0.000532
      dx2y2   :    -0.000053
      dxy     :    -0.000053
      f0      :    -0.000006  f :    -0.000006
      f+1     :     0.000000
      f-1     :     0.000000
      f+2     :     0.000000
      f-2     :     0.000000
      f+3     :    -0.000000
      f-3     :    -0.000000
      g0      :     0.000000  g :     0.000000
      g+1     :     0.000000
      g-1     :     0.000000
      g+2     :    -0.000000
      g-2     :    -0.000000
      g+3     :    -0.000000
      g-3     :    -0.000000
      g+4     :     0.000000
      g-4     :    -0.000000


                      *****************************
                      * MAYER POPULATION ANALYSIS *
                      *****************************

  NA   - Mulliken gross atomic population
  ZA   - Total nuclear charge
  QA   - Mulliken gross atomic charge
  VA   - Mayer's total valence
  BVA  - Mayer's bonded valence
  FA   - Mayer's free valence

  ATOM       NA         ZA         QA         VA         BVA        FA
  0 Cu    29.3153    29.0000    -0.3153     0.9294     0.9108     0.0186
  1 Cu    28.8424    29.0000     0.1576     1.0070     0.6727     0.3343
  2 Cu    28.8424    29.0000     0.1576     1.0070     0.6727     0.3343

  Mayer bond orders larger than 0.100000
B(  0-Cu,  1-Cu) :   0.4554 B(  0-Cu,  2-Cu) :   0.4554 B(  1-Cu,  2-Cu) :   0.2173 


-------
TIMINGS
-------

Total SCF time: 0 days 0 hours 0 min 7 sec 

Total time                  ....       7.050 sec
Sum of individual times     ....       6.796 sec  ( 96.4%)

Fock matrix formation       ....       6.191 sec  ( 87.8%)
  XC integration            ....       0.717 sec  ( 11.6% of F)
    Basis function eval.    ....       0.041 sec  (  5.8% of XC)
    Density eval.           ....       0.106 sec  ( 14.8% of XC)
    XC-Functional eval.     ....       0.031 sec  (  4.3% of XC)
    XC-Potential eval.      ....       0.242 sec  ( 33.8% of XC)
Diagonalization             ....       0.152 sec  (  2.2%)
Density matrix formation    ....       0.019 sec  (  0.3%)
Population analysis         ....       0.015 sec  (  0.2%)
Initial guess               ....       0.101 sec  (  1.4%)
Orbital Transformation      ....       0.000 sec  (  0.0%)
Orbital Orthonormalization  ....       0.000 sec  (  0.0%)
DIIS solution               ....       0.053 sec  (  0.8%)
Grid generation             ....       0.264 sec  (  3.8%)


-------------------------------------------------------------------------------
                          DFT DISPERSION CORRECTION                            
                                                                               
                              DFTD3 V3.1  Rev 1                                
                          USING Becke-Johnson damping                          
-------------------------------------------------------------------------------
The TPSSH functional is recognized
Active option DFTDOPT                   ...         4   

molecular C6(AA) [au] = 1595.875645 


            DFT-D V3
 parameters
 s6 scaling factor         :     1.0000 
 a1 scaling factor         :     0.4529 
 s8 scaling factor         :     2.2382 
 a2 scaling factor         :     4.6550 
 ad hoc parameters k1-k3   :    16.0000     1.3333    -4.0000 

 Edisp/kcal,au: -2.099464852985  -0.003345709851 
 E6   /kcal   :  -0.614086841 
 E8   /kcal   :  -1.485378012 
 % E8         :  70.750315722 

-------------------------   ----------------
Dispersion correction           -0.003345710
-------------------------   ----------------


-------------------------   --------------------
FINAL SINGLE POINT ENERGY     -4921.581955566503
-------------------------   --------------------


                            ***************************************
                            *     ORCA property calculations      *
                            ***************************************

                                    ---------------------
                                    Active property flags
                                    ---------------------
   (+) Dipole Moment


------------------------------------------------------------------------------
                       ORCA ELECTRIC PROPERTIES CALCULATION
------------------------------------------------------------------------------

Dipole Moment Calculation                       ... on
Quadrupole Moment Calculation                   ... off
Polarizability Calculation                      ... off
GBWName                                         ... Cu03N0_LIN.gbw
Electron density file                           ... Cu03N0_LIN.scfp
The origin for moment calculation is the CENTER OF MASS  = ( 0.000000,  0.000000  0.000000)

-------------
DIPOLE MOMENT
-------------
                                X             Y             Z
Electronic contribution:      0.00000       0.00000      -0.00000
Nuclear contribution   :      0.00000       0.00000       0.00000
                        -----------------------------------------
Total Dipole Moment    :      0.00000       0.00000      -0.00000
                        -----------------------------------------
Magnitude (a.u.)       :      0.00000
Magnitude (Debye)      :      0.00000



--------------------
Rotational spectrum 
--------------------
 
Rotational constants in cm-1:     0.000000     0.025268     0.025268 
Rotational constants in MHz :     0.000000   757.502973   757.502973 

 Dipole components along the rotational axes: 
x,y,z [a.u.] :    -0.000001     0.000000     0.000000 
x,y,z [Debye]:    -0.000003     0.000000     0.000000 

 

Timings for individual modules:

Sum of individual times         ...        8.175 sec (=   0.136 min)
GTO integral calculation        ...        0.758 sec (=   0.013 min)   9.3 %
SCF iterations                  ...        7.417 sec (=   0.124 min)  90.7 %
                             ****ORCA TERMINATED NORMALLY****
TOTAL RUN TIME: 0 days 0 hours 0 minutes 8 seconds 648 msec
