
                                 *****************
                                 * O   R   C   A *
                                 *****************

           --- An Ab Initio, DFT and Semiempirical electronic structure package ---

                  #######################################################
                  #                        -***-                        #
                  #          Department of theory and spectroscopy      #
                  #               Directorship: Frank Neese             #
                  #        Max Planck Institute fuer Kohlenforschung    #
                  #                Kaiser Wilhelm Platz 1               #
                  #                 D-45470 Muelheim/Ruhr               #
                  #                      Germany                        #
                  #                                                     #
                  #                  All rights reserved                #
                  #                        -***-                        #
                  #######################################################


                         Program Version 4.2.0 -  RELEASE  -


 With contributions from (in alphabetic order):
   Daniel Aravena         : Magnetic Suceptibility
   Michael Atanasov       : Ab Initio Ligand Field Theory (pilot matlab implementation)
   Alexander A. Auer      : GIAO ZORA, VPT2
   Ute Becker             : Parallelization
   Giovanni Bistoni       : ED, misc. LED, open-shell LED, HFLED
   Martin Brehm           : Molecular dynamics
   Dmytro Bykov           : SCF Hessian
   Vijay G. Chilkuri      : MRCI spin determinant printing, contributions to CSF-ICE
   Dipayan Datta          : RHF DLPNO-CCSD density
   Achintya Kumar Dutta   : EOM-CC, STEOM-CC
   Dmitry Ganyushin       : Spin-Orbit,Spin-Spin,Magnetic field MRCI
   Miquel Garcia          : C-PCM Hessian, Gaussian charge scheme
   Yang Guo               : DLPNO-NEVPT2, CIM, IAO-localization
   Andreas Hansen         : Spin unrestricted coupled pair/coupled cluster methods
   Benjamin Helmich-Paris : CASSCF linear response (MC-RPA)
   Lee Huntington         : MR-EOM, pCC
   Robert Izsak           : Overlap fitted RIJCOSX, COSX-SCS-MP3, EOM
   Christian Kollmar      : KDIIS, OOCD, Brueckner-CCSD(T), CCSD density
   Simone Kossmann        : Meta GGA functionals, TD-DFT gradient, OOMP2, MP2 Hessian
   Martin Krupicka        : AUTO-CI
   Lucas Lang             : DCDCAS
   Dagmar Lenk            : GEPOL surface, SMD
   Dimitrios Liakos       : Extrapolation schemes; Compound Job, initial MDCI parallelization
   Dimitrios Manganas     : Further ROCIS development; embedding schemes
   Dimitrios Pantazis     : SARC Basis sets
   Taras Petrenko         : DFT Hessian,TD-DFT gradient, ASA, ECA, R-Raman, ABS, FL, XAS/XES, NRVS
   Peter Pinski           : DLPNO-MP2, DLPNO-MP2 Gradient
   Christoph Reimann      : Effective Core Potentials
   Marius Retegan         : Local ZFS, SOC
   Christoph Riplinger    : Optimizer, TS searches, QM/MM, DLPNO-CCSD(T), (RO)-DLPNO pert. Triples
   Tobias Risthaus        : Range-separated hybrids, TD-DFT gradient, RPA, STAB
   Michael Roemelt        : Original ROCIS implementation
   Masaaki Saitow         : Open-shell DLPNO-CCSD energy and density
   Barbara Sandhoefer     : DKH picture change effects
   Avijit Sen             : IP-ROCIS
   Kantharuban Sivalingam : CASSCF convergence, NEVPT2, FIC-MRCI
   Bernardo de Souza      : ESD, SOC TD-DFT
   Georgi Stoychev        : AutoAux, RI-MP2 NMR
   Willem Van den Heuvel  : Paramagnetic NMR
   Boris Wezisla          : Elementary symmetry handling
   Frank Wennmohs         : Technical directorship


 We gratefully acknowledge several colleagues who have allowed us to
 interface, adapt or use parts of their codes:
   Stefan Grimme, W. Hujo, H. Kruse,             : VdW corrections, initial TS optimization,
                  C. Bannwarth                     DFT functionals, gCP, sTDA/sTD-DF
   Ed Valeev, F. Pavosevic, A. Kumar             : LibInt (2-el integral package), F12 methods
   Garnet Chan, S. Sharma, J. Yang, R. Olivares  : DMRG
   Ulf Ekstrom                                   : XCFun DFT Library
   Mihaly Kallay                                 : mrcc  (arbitrary order and MRCC methods)
   Andreas Klamt, Michael Diedenhofen            : otool_cosmo (COSMO solvation model)
   Jiri Pittner, Ondrej Demel                    : Mk-CCSD
   Frank Weinhold                                : gennbo (NPA and NBO analysis)
   Christopher J. Cramer and Donald G. Truhlar   : smd solvation model
   Lars Goerigk                                  : TD-DFT with DH, B97 family of functionals
   V. Asgeirsson, H. Jonsson                     : NEB implementation
   FAccTs GmbH                                   : IRC, NEB, NEB-TS, Multilevel, MM, QM/MM, CI optimization
   S Lehtola, MJT Oliveira, MAL Marques          : LibXC Library


 Your calculation uses the libint2 library for the computation of 2-el integrals
 For citations please refer to: http://libint.valeyev.net

 Your ORCA version has been built with support for libXC version: 4.2.3
 For citations please refer to: https://tddft.org/programs/libxc/

 This ORCA versions uses:
   CBLAS   interface :  Fast vector & matrix operations
   LAPACKE interface :  Fast linear algebra routines
   SCALAPACK package :  Parallel linear algebra routines


Your calculation utilizes the atom-pairwise dispersion correction
with the Becke-Johnson damping scheme (D3BJ)
Cite in your paper:
S.Grimme, S.Ehrlich, L.Goerigk, J Comput Chem, (2011), 32, 1456–1465 
S.Grimme, J.Antony, S.Ehrlich and H.Krieg, J.Chem.Phys., 132, (2010), 154104 
   

----- Orbital basis set information -----
Your calculation utilizes the basis: def2-TZVPPD
   F. Weigend and R. Ahlrichs, Phys. Chem. Chem. Phys. 7, 3297 (2005).
   D. Rappoport and F. Furche, J. Chem. Phys. 133 134105 (2010).

----- AuxJK basis set information -----
Your calculation utilizes the auxiliary basis: def2/JK
   H-Ba, Hf-Rn: F. Weigend, J. Comput. Chem. 29, 167 (2008).

================================================================================
                                        WARNINGS
                       Please study these warnings very carefully!
================================================================================


INFO   : the flag for use of LIBINT has been found!

================================================================================
                                       INPUT FILE
================================================================================
NAME = Cu04C2_NH3_A.in
|  1> #
|  2> # Cu04C2_NH3_A TPSSh-D3BJ/Def2-TZVPPD
|  3> #
|  4> ! tpssh d3bj def2-tzvppd def2/jk grid4 nofinalgrid
|  5> 
|  6> *xyz 2 1
|  7> Cu       0.543145   -0.896300    1.192832 
|  8> Cu       0.543145   -0.896300   -1.192832 
|  9> Cu      -1.492086   -0.543328    0.000000 
| 10> Cu       0.211399    1.215580   -0.000000 
| 11> N        0.543145    3.129666   -0.000000 
| 12> H        0.146420    3.607894   -0.818022 
| 13> H        0.146420    3.607894    0.818022 
| 14> H        1.542647    3.366638   -0.000000 
| 15> *
| 16> 
| 17> %maxcore 5000
| 18> 
| 19> %pal
| 20> nprocs = 24
| 21> end
| 22> 
| 23> 
| 24>                          ****END OF INPUT****
================================================================================

                       ****************************
                       * Single Point Calculation *
                       ****************************

---------------------------------
CARTESIAN COORDINATES (ANGSTROEM)
---------------------------------
  Cu     0.543145   -0.896300    1.192832
  Cu     0.543145   -0.896300   -1.192832
  Cu    -1.492086   -0.543328    0.000000
  Cu     0.211399    1.215580   -0.000000
  N      0.543145    3.129666   -0.000000
  H      0.146420    3.607894   -0.818022
  H      0.146420    3.607894    0.818022
  H      1.542647    3.366638   -0.000000

----------------------------
CARTESIAN COORDINATES (A.U.)
----------------------------
  NO LB      ZA    FRAG     MASS         X           Y           Z
   0 Cu   29.0000    0    63.550    1.026395   -1.693762    2.254126
   1 Cu   29.0000    0    63.550    1.026395   -1.693762   -2.254126
   2 Cu   29.0000    0    63.550   -2.819634   -1.026741    0.000000
   3 Cu   29.0000    0    63.550    0.399486    2.297113   -0.000000
   4 N     7.0000    0    14.007    1.026395    5.914212   -0.000000
   5 H     1.0000    0     1.008    0.276694    6.817932   -1.545838
   6 H     1.0000    0     1.008    0.276694    6.817932    1.545838
   7 H     1.0000    0     1.008    2.915180    6.362024   -0.000000

--------------------------------
INTERNAL COORDINATES (ANGSTROEM)
--------------------------------
 Cu     0   0   0     0.000000000000     0.00000000     0.00000000
 Cu     1   0   0     2.385664000000     0.00000000     0.00000000
 Cu     1   2   0     2.385288795171    59.99479644     0.00000000
 Cu     1   2   3     2.448048349837    60.83946039   288.76638272
 N      4   1   2     1.942622100130   145.77799306   214.87903457
 H      5   4   1     1.027254952820   113.12566443   180.05646845
 H      5   4   1     1.027254952820   113.12566443   300.02703627
 H      5   4   1     1.027209801739   113.17070719    60.04175236

---------------------------
INTERNAL COORDINATES (A.U.)
---------------------------
 Cu     0   0   0     0.000000000000     0.00000000     0.00000000
 Cu     1   0   0     4.508251607555     0.00000000     0.00000000
 Cu     1   2   0     4.507542573184    59.99479644     0.00000000
 Cu     1   2   3     4.626140943790    60.83946039   288.76638272
 N      4   1   2     3.671023750948   145.77799306   214.87903457
 H      5   4   1     1.941230530544   113.12566443   180.05646845
 H      5   4   1     1.941230530544   113.12566443   300.02703627
 H      5   4   1     1.941145207366   113.17070719    60.04175236

---------------------
BASIS SET INFORMATION
---------------------
There are 3 groups of distinct atoms

 Group   1 Type Cu  : 17s13p7d2f1g contracted to 6s6p4d2f1g pattern {842111/631111/4111/11/1}
 Group   2 Type N   : 12s6p3d1f contracted to 6s3p3d1f pattern {621111/411/111/1}
 Group   3 Type H   : 5s3p1d contracted to 3s3p1d pattern {311/111/1}

Atom   0Cu   basis set group =>   1
Atom   1Cu   basis set group =>   1
Atom   2Cu   basis set group =>   1
Atom   3Cu   basis set group =>   1
Atom   4N    basis set group =>   2
Atom   5H    basis set group =>   3
Atom   6H    basis set group =>   3
Atom   7H    basis set group =>   3
----------------------------------
AUXILIARY/JK BASIS SET INFORMATION
----------------------------------
There are 3 groups of distinct atoms

 Group   1 Type Cu  : 19s14p12d10f7g3h1i contracted to 16s13p11d9f5g3h1i pattern {4111111111111111/2111111111111/21111111111/211111111/31111/111/1}
 Group   2 Type N   : 14s10p6d2f1g contracted to 10s8p4d2f1g pattern {5111111111/31111111/3111/11/1}
 Group   3 Type H   : 4s2p2d contracted to 2s2p2d pattern {31/11/11}

Atom   0Cu   basis set group =>   1
Atom   1Cu   basis set group =>   1
Atom   2Cu   basis set group =>   1
Atom   3Cu   basis set group =>   1
Atom   4N    basis set group =>   2
Atom   5H    basis set group =>   3
Atom   6H    basis set group =>   3
Atom   7H    basis set group =>   3


           ************************************************************
           *        Program running with 24 parallel MPI-processes    *
           *              working on a common directory               *
           ************************************************************
------------------------------------------------------------------------------
                           ORCA GTO INTEGRAL CALCULATION
------------------------------------------------------------------------------

                         BASIS SET STATISTICS AND STARTUP INFO

 # of primitive gaussian shells          ...  209
 # of primitive gaussian functions       ...  565
 # of contracted shells                  ...  110
 # of contracted basis functions         ...  356
 Highest angular momentum                ...    4
 Maximum contraction depth               ...    8
 Integral package used                   ... LIBINT
 Integral threshhold            Thresh   ...  1.000e-10
 Primitive cut-off              TCut     ...  1.000e-11


------------------------------ INTEGRAL EVALUATION ----------------------------


 * One electron integrals 
 Pre-screening matrix                    ... done
 Shell pair data                         ... done (   0.001 sec)



           ************************************************************
           *        Program running with 24 parallel MPI-processes    *
           *              working on a common directory               *
           ************************************************************
-------------------------------------------------------------------------------
                                 ORCA SCF
-------------------------------------------------------------------------------

------------
SCF SETTINGS
------------
Hamiltonian:
 Density Functional     Method          .... DFT(GTOs)
 Exchange Functional    Exchange        .... TPSS
 Correlation Functional Correlation     .... TPSS
 LDA part of GGA corr.  LDAOpt          .... PW91-LDA
 Gradients option       PostSCFGGA      .... off
 Hybrid DFT is turned on
   Fraction HF Exchange ScalHFX         ....  0.100000
   Scaling of DF-GGA-X  ScalDFX         ....  0.900000
   Scaling of DF-GGA-C  ScalDFC         ....  1.000000
   Scaling of DF-LDA-C  ScalLDAC        ....  1.000000
   Perturbative correction              ....  0.000000
   Density functional embedding theory  .... OFF
   NL short-range parameter             ....  5.200000


General Settings:
 Integral files         IntName         .... Cu04C2_NH3_A
 Hartree-Fock type      HFTyp           .... RHF
 Total Charge           Charge          ....    2
 Multiplicity           Mult            ....    1
 Number of Electrons    NEL             ....  124
 Basis Dimension        Dim             ....  356
 Nuclear Repulsion      ENuc            ....   1296.6693256898 Eh

Convergence Acceleration:
 DIIS                   CNVDIIS         .... on
   Start iteration      DIISMaxIt       ....    12
   Startup error        DIISStart       ....  0.200000
   # of expansion vecs  DIISMaxEq       ....     5
   Bias factor          DIISBfac        ....   1.050
   Max. coefficient     DIISMaxC        ....  10.000
 Newton-Raphson         CNVNR           .... off
 SOSCF                  CNVSOSCF        .... off
 Level Shifting         CNVShift        .... on
   Level shift para.    LevelShift      ....    0.2500
   Turn off err/grad.   ShiftErr        ....    0.0010
 Zerner damping         CNVZerner       .... off
 Static damping         CNVDamp         .... on
   Fraction old density DampFac         ....    0.7000
   Max. Damping (<1)    DampMax         ....    0.9800
   Min. Damping (>=0)   DampMin         ....    0.0000
   Turn off err/grad.   DampErr         ....    0.1000
 Fernandez-Rico         CNVRico         .... off

SCF Procedure:
 Maximum # iterations   MaxIter         ....   125
 SCF integral mode      SCFMode         .... Direct
   Integral package                     .... LIBINT
 Reset frequency        DirectResetFreq ....    20
 Integral Threshold     Thresh          ....  1.000e-10 Eh
 Primitive CutOff       TCut            ....  1.000e-11 Eh

Convergence Tolerance:
 Convergence Check Mode ConvCheckMode   .... Total+1el-Energy
 Convergence forced     ConvForced      .... 0
 Energy Change          TolE            ....  1.000e-06 Eh
 1-El. energy change                    ....  1.000e-03 Eh
 DIIS Error             TolErr          ....  1.000e-06


Diagonalization of the overlap matrix:
Smallest eigenvalue                        ... 1.270e-04
Time for diagonalization                   ...    0.018 sec
Threshold for overlap eigenvalues          ... 1.000e-08
Number of eigenvalues below threshold      ... 0
Time for construction of square roots      ...    0.015 sec
Total time needed                          ...    0.034 sec

-------------------
DFT GRID GENERATION
-------------------

General Integration Accuracy     IntAcc      ...  4.670
Radial Grid Type                 RadialGrid  ... Gauss-Chebyshev
Angular Grid (max. acc.)         AngularGrid ... Lebedev-302
Angular grid pruning method      GridPruning ... 3 (G Style)
Weight generation scheme         WeightScheme... Becke
Basis function cutoff            BFCut       ...    1.0000e-10
Integration weight cutoff        WCut        ...    1.0000e-14
Grids for H and He will be reduced by one unit

# of grid points (after initial pruning)     ...  54618 (   0.0 sec)
# of grid points (after weights+screening)   ...  52962 (   0.0 sec)
nearest neighbour list constructed           ...    0.0 sec
Grid point re-assignment to atoms done       ...    0.0 sec
Grid point division into batches done        ...    0.3 sec
Reduced shell lists constructed in    0.3 sec

Total number of grid points                  ...    52962
Total number of batches                      ...      831
Average number of points per batch           ...       63
Average number of grid points per atom       ...     6620
Average number of shells per batch           ...    29.44 (26.77%)
Average number of basis functions per batch  ...    81.56 (22.91%)
Average number of large shells per batch     ...    20.64 (70.09%)
Average number of large basis fcns per batch ...    56.69 (69.52%)
Maximum spatial batch extension              ...  20.29, 20.05, 16.54 au
Average spatial batch extension              ...   0.34,  0.30,  0.30 au

Time for grid setup =    0.375 sec

------------------------------
INITIAL GUESS: MODEL POTENTIAL
------------------------------
Loading Hartree-Fock densities                     ... done
Calculating cut-offs                               ... done
Setting up the integral package                    ... done
Initializing the effective Hamiltonian             ... done
Starting the Coulomb interaction                   ... done (   0.0 sec)
Reading the grid                                   ... done
Mapping shells                                     ... done
Starting the XC term evaluation                    ... done (   0.0 sec)
  promolecular density results
     # of electrons  =    125.998593469
     EX              =   -269.503311729
     EC              =     -5.759441905
     EX+EC           =   -275.262753634
Transforming the Hamiltonian                       ... done (   0.0 sec)
Diagonalizing the Hamiltonian                      ... done (   0.0 sec)
Back transforming the eigenvectors                 ... done (   0.0 sec)
Now organizing SCF variables                       ... done
                      ------------------
                      INITIAL GUESS DONE (   0.5 sec)
                      ------------------
--------------
SCF ITERATIONS
--------------
ITER       Energy         Delta-E        Max-DP      RMS-DP      [F,P]     Damp
               ***  Starting incremental Fock matrix formation  ***
  0  -6618.0978475367   0.000000000000 0.08802688  0.00102152  0.2386629 0.7000
  1  -6618.1505640981  -0.052716561348 0.05900984  0.00072586  0.1004462 0.7000
                               ***Turning on DIIS***
  2  -6618.1692309467  -0.018666848589 0.12208958  0.00143538  0.0265744 0.0000
  3  -6618.2006345954  -0.031403648739 0.01707508  0.00027995  0.0658013 0.0000
  4  -6618.2079344739  -0.007299878487 0.01296688  0.00015094  0.0126142 0.0000
  5  -6618.2085593477  -0.000624873796 0.00342095  0.00005609  0.0059070 0.0000
  6  -6618.2085940949  -0.000034747238 0.00386119  0.00003368  0.0071783 0.0000
  7  -6618.2086536881  -0.000059593111 0.00103470  0.00002128  0.0009213 0.0000
  8  -6618.2086467200   0.000006968062 0.00056021  0.00000831  0.0018521 0.0000
  9  -6618.2086574190  -0.000010699004 0.00045692  0.00000725  0.0004681 0.0000
 10  -6618.2086579897  -0.000000570658 0.00048111  0.00000421  0.0004191 0.0000
 11  -6618.2086582785  -0.000000288834 0.00008616  0.00000110  0.0000560 0.0000
                 **** Energy Check signals convergence ****

               *****************************************************
               *                     SUCCESS                       *
               *           SCF CONVERGED AFTER  12 CYCLES          *
               *****************************************************


----------------
TOTAL SCF ENERGY
----------------

Total Energy       :        -6618.20865829 Eh         -180090.61322 eV

Components:
Nuclear Repulsion  :         1296.66932569 Eh           35284.16616 eV
Electronic Energy  :        -7914.87798398 Eh         -215374.77939 eV
One Electron Energy:       -11770.12091320 Eh         -320281.27283 eV
Two Electron Energy:         3855.24292922 Eh          104906.49345 eV

Virial components:
Potential Energy   :       -13225.83158805 Eh         -359893.17413 eV
Kinetic Energy     :         6607.62292976 Eh          179802.56090 eV
Virial Ratio       :            2.00160205


DFT components:
N(Alpha)           :       62.000001981457 electrons
N(Beta)            :       62.000001981457 electrons
N(Total)           :      124.000003962913 electrons
E(X)               :     -243.720772286580 Eh       
E(C)               :       -5.755896319532 Eh       
E(XC)              :     -249.476668606112 Eh       
DFET-embed. en.    :        0.000000000000 Eh       

---------------
SCF CONVERGENCE
---------------

  Last Energy change         ...   -1.5186e-08  Tolerance :   1.0000e-06
  Last MAX-Density change    ...    2.9451e-05  Tolerance :   1.0000e-05
  Last RMS-Density change    ...    3.6074e-07  Tolerance :   1.0000e-06
  Last DIIS Error            ...    2.4269e-05  Tolerance :   1.0000e-06

             **** THE GBW FILE WAS UPDATED (Cu04C2_NH3_A.gbw) ****
             **** DENSITY FILE WAS UPDATED (Cu04C2_NH3_A.scfp) ****
             **** ENERGY FILE WAS UPDATED (Cu04C2_NH3_A.en.tmp) ****
             **** THE GBW FILE WAS UPDATED (Cu04C2_NH3_A.gbw) ****
             **** DENSITY FILE WAS UPDATED (Cu04C2_NH3_A.scfp) ****
----------------
ORBITAL ENERGIES
----------------

  NO   OCC          E(Eh)            E(eV) 
   0   2.0000    -323.134457     -8792.9356 
   1   2.0000    -323.134454     -8792.9355 
   2   2.0000    -323.134447     -8792.9353 
   3   2.0000    -323.126456     -8792.7179 
   4   2.0000     -39.006675     -1061.4256 
   5   2.0000     -39.006671     -1061.4255 
   6   2.0000     -39.006642     -1061.4247 
   7   2.0000     -39.005959     -1061.4061 
   8   2.0000     -34.183748      -930.1871 
   9   2.0000     -34.183745      -930.1870 
  10   2.0000     -34.183737      -930.1868 
  11   2.0000     -34.183417      -930.1781 
  12   2.0000     -34.183407      -930.1778 
  13   2.0000     -34.183401      -930.1776 
  14   2.0000     -34.182956      -930.1655 
  15   2.0000     -34.182954      -930.1655 
  16   2.0000     -34.182946      -930.1652 
  17   2.0000     -34.182260      -930.1466 
  18   2.0000     -34.181626      -930.1293 
  19   2.0000     -34.181625      -930.1293 
  20   2.0000     -14.601922      -397.3385 
  21   2.0000      -4.608822      -125.4124 
  22   2.0000      -4.608413      -125.4013 
  23   2.0000      -4.608408      -125.4012 
  24   2.0000      -4.604262      -125.2884 
  25   2.0000      -3.103956       -84.4629 
  26   2.0000      -3.101440       -84.3945 
  27   2.0000      -3.101432       -84.3942 
  28   2.0000      -3.099366       -84.3380 
  29   2.0000      -3.099357       -84.3378 
  30   2.0000      -3.099057       -84.3296 
  31   2.0000      -3.098481       -84.3140 
  32   2.0000      -3.098132       -84.3044 
  33   2.0000      -3.098125       -84.3043 
  34   2.0000      -3.096476       -84.2594 
  35   2.0000      -3.093257       -84.1718 
  36   2.0000      -3.093246       -84.1715 
  37   2.0000      -1.192037       -32.4370 
  38   2.0000      -0.793976       -21.6052 
  39   2.0000      -0.793956       -21.6046 
  40   2.0000      -0.715389       -19.4667 
  41   2.0000      -0.668534       -18.1917 
  42   2.0000      -0.638899       -17.3853 
  43   2.0000      -0.637908       -17.3584 
  44   2.0000      -0.637897       -17.3581 
  45   2.0000      -0.625799       -17.0288 
  46   2.0000      -0.625784       -17.0284 
  47   2.0000      -0.619386       -16.8544 
  48   2.0000      -0.615214       -16.7408 
  49   2.0000      -0.615203       -16.7405 
  50   2.0000      -0.613307       -16.6889 
  51   2.0000      -0.597339       -16.2544 
  52   2.0000      -0.597308       -16.2536 
  53   2.0000      -0.596651       -16.2357 
  54   2.0000      -0.595796       -16.2124 
  55   2.0000      -0.595779       -16.2120 
  56   2.0000      -0.592814       -16.1313 
  57   2.0000      -0.592796       -16.1308 
  58   2.0000      -0.581001       -15.8098 
  59   2.0000      -0.578936       -15.7537 
  60   2.0000      -0.578930       -15.7535 
  61   2.0000      -0.572286       -15.5727 
  62   0.0000      -0.441130       -12.0038 
  63   0.0000      -0.441105       -12.0031 
  64   0.0000      -0.412633       -11.2283 
  65   0.0000      -0.325620        -8.8606 
  66   0.0000      -0.309381        -8.4187 
  67   0.0000      -0.309365        -8.4183 
  68   0.0000      -0.298989        -8.1359 
  69   0.0000      -0.298943        -8.1347 
  70   0.0000      -0.273201        -7.4342 
  71   0.0000      -0.201031        -5.4703 
  72   0.0000      -0.201012        -5.4698 
  73   0.0000      -0.200331        -5.4513 
  74   0.0000      -0.173662        -4.7256 
  75   0.0000      -0.173646        -4.7251 
  76   0.0000      -0.167133        -4.5479 
  77   0.0000      -0.163429        -4.4471 
  78   0.0000      -0.161641        -4.3985 
  79   0.0000      -0.161639        -4.3984 
  80   0.0000      -0.144499        -3.9320 
  81   0.0000      -0.144465        -3.9311 
  82   0.0000      -0.140102        -3.8124 
  83   0.0000      -0.119805        -3.2601 
  84   0.0000      -0.117389        -3.1943 
  85   0.0000      -0.117387        -3.1943 
  86   0.0000      -0.107085        -2.9139 
  87   0.0000      -0.107080        -2.9138 
  88   0.0000      -0.105859        -2.8806 
  89   0.0000      -0.097687        -2.6582 
  90   0.0000      -0.074780        -2.0349 
  91   0.0000      -0.074740        -2.0338 
  92   0.0000      -0.067923        -1.8483 
  93   0.0000      -0.051005        -1.3879 
  94   0.0000      -0.050999        -1.3878 
  95   0.0000      -0.048251        -1.3130 
  96   0.0000      -0.042091        -1.1453 
  97   0.0000      -0.042070        -1.1448 
  98   0.0000      -0.019996        -0.5441 
  99   0.0000      -0.012402        -0.3375 
 100   0.0000      -0.012387        -0.3371 
 101   0.0000       0.004235         0.1152 
 102   0.0000       0.004247         0.1156 
 103   0.0000       0.004617         0.1256 
 104   0.0000       0.018086         0.4921 
 105   0.0000       0.041962         1.1419 
 106   0.0000       0.041977         1.1422 
 107   0.0000       0.044251         1.2041 
 108   0.0000       0.044265         1.2045 
 109   0.0000       0.052631         1.4322 
 110   0.0000       0.068307         1.8587 
 111   0.0000       0.068329         1.8593 
 112   0.0000       0.071713         1.9514 
 113   0.0000       0.072522         1.9734 
 114   0.0000       0.077819         2.1175 
 115   0.0000       0.077823         2.1177 
 116   0.0000       0.087585         2.3833 
 117   0.0000       0.124368         3.3842 
 118   0.0000       0.124395         3.3850 
 119   0.0000       0.148562         4.0426 
 120   0.0000       0.150346         4.0911 
 121   0.0000       0.150407         4.0928 
 122   0.0000       0.154920         4.2156 
 123   0.0000       0.175124         4.7654 
 124   0.0000       0.175193         4.7672 
 125   0.0000       0.181803         4.9471 
 126   0.0000       0.219078         5.9614 
 127   0.0000       0.219330         5.9683 
 128   0.0000       0.219433         5.9711 
 129   0.0000       0.271833         7.3970 
 130   0.0000       0.271867         7.3979 
 131   0.0000       0.325674         8.8620 
 132   0.0000       0.384896        10.4735 
 133   0.0000       0.384979        10.4758 
 134   0.0000       0.388458        10.5705 
 135   0.0000       0.409417        11.1408 
 136   0.0000       0.409478        11.1425 
 137   0.0000       0.427759        11.6399 
 138   0.0000       0.428033        11.6474 
 139   0.0000       0.428039        11.6475 
 140   0.0000       0.474893        12.9225 
 141   0.0000       0.474900        12.9227 
 142   0.0000       0.485177        13.2023 
 143   0.0000       0.485218        13.2035 
 144   0.0000       0.486011        13.2250 
 145   0.0000       0.503017        13.6878 
 146   0.0000       0.525285        14.2937 
 147   0.0000       0.525342        14.2953 
 148   0.0000       0.540879        14.7181 
 149   0.0000       0.572068        15.5668 
 150   0.0000       0.593619        16.1532 
 151   0.0000       0.593713        16.1557 
 152   0.0000       0.599777        16.3208 
 153   0.0000       0.631973        17.1969 
 154   0.0000       0.640196        17.4206 
 155   0.0000       0.640220        17.4213 
 156   0.0000       0.655129        17.8270 
 157   0.0000       0.663588        18.0571 
 158   0.0000       0.663692        18.0600 
 159   0.0000       0.689011        18.7489 
 160   0.0000       0.689032        18.7495 
 161   0.0000       0.717727        19.5303 
 162   0.0000       0.717764        19.5313 
 163   0.0000       0.742406        20.2019 
 164   0.0000       0.767514        20.8851 
 165   0.0000       0.861398        23.4398 
 166   0.0000       0.861404        23.4400 
 167   0.0000       0.871139        23.7049 
 168   0.0000       0.871189        23.7063 
 169   0.0000       0.905191        24.6315 
 170   0.0000       0.907108        24.6837 
 171   0.0000       0.907120        24.6840 
 172   0.0000       0.909931        24.7605 
 173   0.0000       1.010115        27.4866 
 174   0.0000       1.010285        27.4913 
 175   0.0000       1.100513        29.9465 
 176   0.0000       1.100553        29.9476 
 177   0.0000       1.171865        31.8881 
 178   0.0000       1.214678        33.0531 
 179   0.0000       1.364438        37.1282 
 180   0.0000       1.411967        38.4216 
 181   0.0000       1.412158        38.4268 
 182   0.0000       1.458720        39.6938 
 183   0.0000       1.458798        39.6959 
 184   0.0000       2.141391        58.2702 
 185   0.0000       2.314359        62.9769 
 186   0.0000       2.346875        63.8617 
 187   0.0000       2.346878        63.8618 
 188   0.0000       2.515251        68.4434 
 189   0.0000       2.637546        71.7713 
 190   0.0000       2.637695        71.7753 
 191   0.0000       2.673895        72.7604 
 192   0.0000       2.686526        73.1041 
 193   0.0000       2.686578        73.1055 
 194   0.0000       2.734752        74.4164 
 195   0.0000       2.741590        74.6024 
 196   0.0000       2.741619        74.6033 
 197   0.0000       2.760486        75.1166 
 198   0.0000       2.760631        75.1206 
 199   0.0000       2.816848        76.6503 
 200   0.0000       2.833194        77.0951 
 201   0.0000       2.841443        77.3196 
 202   0.0000       2.872264        78.1583 
 203   0.0000       2.872329        78.1600 
 204   0.0000       2.922790        79.5331 
 205   0.0000       2.957440        80.4760 
 206   0.0000       2.957499        80.4776 
 207   0.0000       2.959237        80.5249 
 208   0.0000       3.003963        81.7420 
 209   0.0000       3.015271        82.0497 
 210   0.0000       3.015312        82.0508 
 211   0.0000       3.022341        82.2421 
 212   0.0000       3.034300        82.5675 
 213   0.0000       3.034347        82.5688 
 214   0.0000       3.038305        82.6765 
 215   0.0000       3.038328        82.6771 
 216   0.0000       3.040580        82.7384 
 217   0.0000       3.043794        82.8258 
 218   0.0000       3.043808        82.8262 
 219   0.0000       3.043863        82.8277 
 220   0.0000       3.044511        82.8454 
 221   0.0000       3.044529        82.8458 
 222   0.0000       3.051822        83.0443 
 223   0.0000       3.051835        83.0446 
 224   0.0000       3.055857        83.1541 
 225   0.0000       3.056430        83.1697 
 226   0.0000       3.061913        83.3189 
 227   0.0000       3.061916        83.3190 
 228   0.0000       3.070727        83.5587 
 229   0.0000       3.070857        83.5623 
 230   0.0000       3.084766        83.9408 
 231   0.0000       3.084799        83.9417 
 232   0.0000       3.085317        83.9557 
 233   0.0000       3.096670        84.2647 
 234   0.0000       3.112611        84.6984 
 235   0.0000       3.166697        86.1702 
 236   0.0000       3.166913        86.1761 
 237   0.0000       3.193138        86.8897 
 238   0.0000       3.245763        88.3217 
 239   0.0000       3.245841        88.3238 
 240   0.0000       3.250219        88.4430 
 241   0.0000       3.274873        89.1138 
 242   0.0000       3.274953        89.1160 
 243   0.0000       3.308469        90.0280 
 244   0.0000       3.329813        90.6088 
 245   0.0000       3.329918        90.6117 
 246   0.0000       3.366352        91.6031 
 247   0.0000       3.380130        91.9780 
 248   0.0000       3.380144        91.9784 
 249   0.0000       3.384597        92.0996 
 250   0.0000       3.384688        92.1020 
 251   0.0000       3.465034        94.2884 
 252   0.0000       3.551137        96.6313 
 253   0.0000       3.551233        96.6340 
 254   0.0000       3.582672        97.4895 
 255   0.0000       3.586055        97.5815 
 256   0.0000       3.586326        97.5889 
 257   0.0000       3.602057        98.0170 
 258   0.0000       3.640096        99.0520 
 259   0.0000       3.640118        99.0526 
 260   0.0000       3.665481        99.7428 
 261   0.0000       3.730861       101.5219 
 262   0.0000       3.731069       101.5276 
 263   0.0000       3.770991       102.6139 
 264   0.0000       3.771051       102.6155 
 265   0.0000       3.812764       103.7506 
 266   0.0000       3.900269       106.1317 
 267   0.0000       4.002637       108.9173 
 268   0.0000       4.002761       108.9207 
 269   0.0000       4.049158       110.1832 
 270   0.0000       4.072881       110.8287 
 271   0.0000       4.072936       110.8302 
 272   0.0000       4.217044       114.7516 
 273   0.0000       4.217099       114.7531 
 274   0.0000       4.242156       115.4349 
 275   0.0000       4.301803       117.0580 
 276   0.0000       4.592382       124.9651 
 277   0.0000       4.592387       124.9652 
 278   0.0000       4.687067       127.5416 
 279   0.0000       4.942349       134.4882 
 280   0.0000       4.942359       134.4884 
 281   0.0000       5.052961       137.4981 
 282   0.0000       5.326894       144.9522 
 283   0.0000       5.568628       151.5301 
 284   0.0000       5.604758       152.5132 
 285   0.0000       5.604920       152.5176 
 286   0.0000       5.759074       156.7124 
 287   0.0000       5.759226       156.7165 
 288   0.0000       6.260525       170.3575 
 289   0.0000       6.452929       175.5931 
 290   0.0000       6.453197       175.6004 
 291   0.0000      12.607656       343.0718 
 292   0.0000      12.607847       343.0770 
 293   0.0000      12.607948       343.0797 
 294   0.0000      12.607977       343.0805 
 295   0.0000      12.608147       343.0851 
 296   0.0000      12.608491       343.0945 
 297   0.0000      12.608651       343.0988 
 298   0.0000      12.608759       343.1018 
 299   0.0000      12.608824       343.1035 
 300   0.0000      12.609245       343.1150 
 301   0.0000      12.609667       343.1265 
 302   0.0000      12.609776       343.1294 
 303   0.0000      12.609937       343.1338 
 304   0.0000      12.610102       343.1383 
 305   0.0000      12.610286       343.1433 
 306   0.0000      12.610368       343.1456 
 307   0.0000      12.610573       343.1511 
 308   0.0000      12.610577       343.1513 
 309   0.0000      12.610916       343.1605 
 310   0.0000      12.611116       343.1659 
 311   0.0000      12.611477       343.1757 
 312   0.0000      12.612741       343.2101 
 313   0.0000      12.612743       343.2102 
 314   0.0000      12.612771       343.2109 
 315   0.0000      12.612785       343.2113 
 316   0.0000      12.612813       343.2121 
 317   0.0000      12.612839       343.2128 
 318   0.0000      12.618044       343.3544 
 319   0.0000      12.618061       343.3549 
 320   0.0000      12.618818       343.3755 
 321   0.0000      12.619001       343.3805 
 322   0.0000      12.621027       343.4356 
 323   0.0000      12.621090       343.4373 
 324   0.0000      12.622824       343.4845 
 325   0.0000      12.622918       343.4871 
 326   0.0000      12.623656       343.5071 
 327   0.0000      12.715489       346.0061 
 328   0.0000      12.715492       346.0061 
 329   0.0000      12.715508       346.0066 
 330   0.0000      12.716242       346.0265 
 331   0.0000      12.717056       346.0487 
 332   0.0000      12.717071       346.0491 
 333   0.0000      12.718615       346.0911 
 334   0.0000      12.720375       346.1390 
 335   0.0000      12.721341       346.1653 
 336   0.0000      12.721353       346.1656 
 337   0.0000      12.722391       346.1939 
 338   0.0000      12.724265       346.2449 
 339   0.0000      12.724601       346.2540 
 340   0.0000      12.724608       346.2542 
 341   0.0000      12.728040       346.3476 
 342   0.0000      12.729275       346.3812 
 343   0.0000      12.729298       346.3818 
 344   0.0000      12.735185       346.5420 
 345   0.0000      12.735197       346.5423 
 346   0.0000      12.741818       346.7225 
 347   0.0000      12.741850       346.7234 
 348   0.0000      12.783715       347.8626 
 349   0.0000      12.788198       347.9845 
 350   0.0000      12.788236       347.9856 
 351   0.0000      12.793021       348.1158 
 352   0.0000      12.812043       348.6334 
 353   0.0000      12.812050       348.6336 
 354   0.0000      12.926059       351.7359 
 355   0.0000      32.561140       886.0337 

                    ********************************
                    * MULLIKEN POPULATION ANALYSIS *
                    ********************************

-----------------------
MULLIKEN ATOMIC CHARGES
-----------------------
   0 Cu:    0.516087
   1 Cu:    0.516069
   2 Cu:    0.516020
   3 Cu:    0.035656
   4 N :   -0.229488
   5 H :    0.215181
   6 H :    0.215172
   7 H :    0.215303
Sum of atomic charges:    2.0000000

--------------------------------
MULLIKEN REDUCED ORBITAL CHARGES
--------------------------------
  0 Cus       :     6.510721  s :     6.510721
      pz      :     4.076741  p :    12.138918
      px      :     4.037717
      py      :     4.024460
      dz2     :     1.948451  d :     9.834012
      dxz     :     1.969771
      dyz     :     1.967253
      dx2y2   :     1.964633
      dxy     :     1.983904
      f0      :     0.000041  f :     0.000260
      f+1     :     0.000055
      f-1     :     0.000052
      f+2     :     0.000029
      f-2     :     0.000032
      f+3     :     0.000025
      f-3     :     0.000025
      g0      :     0.000000  g :     0.000001
      g+1     :     0.000000
      g-1     :     0.000000
      g+2     :     0.000000
      g-2     :     0.000000
      g+3     :     0.000000
      g-3     :     0.000000
      g+4     :     0.000000
      g-4     :     0.000000
  1 Cus       :     6.510734  s :     6.510734
      pz      :     4.076744  p :    12.138922
      px      :     4.037717
      py      :     4.024461
      dz2     :     1.948451  d :     9.834013
      dxz     :     1.969771
      dyz     :     1.967253
      dx2y2   :     1.964633
      dxy     :     1.983904
      f0      :     0.000041  f :     0.000260
      f+1     :     0.000055
      f-1     :     0.000052
      f+2     :     0.000029
      f-2     :     0.000032
      f+3     :     0.000025
      f-3     :     0.000025
      g0      :     0.000000  g :     0.000001
      g+1     :     0.000000
      g-1     :     0.000000
      g+2     :     0.000000
      g-2     :     0.000000
      g+3     :     0.000000
      g-3     :     0.000000
      g+4     :     0.000000
      g-4     :     0.000000
  2 Cus       :     6.510742  s :     6.510742
      pz      :     4.024658  p :    12.138931
      px      :     4.099266
      py      :     4.015007
      dz2     :     1.986334  d :     9.834046
      dxz     :     1.936592
      dyz     :     1.989109
      dx2y2   :     1.971657
      dxy     :     1.950355
      f0      :     0.000024  f :     0.000260
      f+1     :     0.000053
      f-1     :     0.000010
      f+2     :     0.000033
      f-2     :     0.000044
      f+3     :     0.000048
      f-3     :     0.000050
      g0      :     0.000000  g :     0.000001
      g+1     :     0.000000
      g-1     :     0.000000
      g+2     :     0.000000
      g-2     :     0.000000
      g+3     :     0.000000
      g-3     :     0.000000
      g+4     :     0.000000
      g-4     :     0.000000
  3 Cus       :     7.359094  s :     7.359094
      pz      :     4.014233  p :    11.755748
      px      :     4.005872
      py      :     3.735643
      dz2     :     2.000943  d :     9.848767
      dxz     :     1.993966
      dyz     :     1.911344
      dx2y2   :     2.006271
      dxy     :     1.936243
      f0      :     0.000051  f :     0.000733
      f+1     :     0.000017
      f-1     :     0.000170
      f+2     :     0.000077
      f-2     :     0.000039
      f+3     :     0.000151
      f-3     :     0.000228
      g0      :     0.000000  g :     0.000002
      g+1     :     0.000000
      g-1     :     0.000000
      g+2     :     0.000000
      g-2     :     0.000000
      g+3     :     0.000000
      g-3     :     0.000000
      g+4     :     0.000001
      g-4     :     0.000000
  4 N s       :     3.384756  s :     3.384756
      pz      :     1.188836  p :     3.837193
      px      :     1.196553
      py      :     1.451804
      dz2     :     0.000922  d :     0.006431
      dxz     :     0.002266
      dyz     :     0.004581
      dx2y2   :    -0.002366
      dxy     :     0.001027
      f0      :     0.000053  f :     0.001108
      f+1     :     0.000185
      f-1     :     0.000265
      f+2     :     0.000051
      f-2     :     0.000090
      f+3     :     0.000262
      f-3     :     0.000204
  5 H s       :     0.715769  s :     0.715769
      pz      :     0.024345  p :     0.064990
      px      :     0.018762
      py      :     0.021883
      dz2     :     0.001287  d :     0.004060
      dxz     :     0.000895
      dyz     :     0.000932
      dx2y2   :     0.000606
      dxy     :     0.000340
  6 H s       :     0.715777  s :     0.715777
      pz      :     0.024346  p :     0.064992
      px      :     0.018763
      py      :     0.021883
      dz2     :     0.001287  d :     0.004060
      dxz     :     0.000895
      dyz     :     0.000932
      dx2y2   :     0.000606
      dxy     :     0.000340
  7 H s       :     0.715687  s :     0.715687
      pz      :     0.017964  p :     0.064948
      px      :     0.028862
      py      :     0.018122
      dz2     :     0.000269  d :     0.004062
      dxz     :     0.001351
      dyz     :     0.000016
      dx2y2   :     0.001025
      dxy     :     0.001401


                     *******************************
                     * LOEWDIN POPULATION ANALYSIS *
                     *******************************

----------------------
LOEWDIN ATOMIC CHARGES
----------------------
   0 Cu:    0.459853
   1 Cu:    0.459853
   2 Cu:    0.459862
   3 Cu:    0.275417
   4 N :    0.474456
   5 H :   -0.043140
   6 H :   -0.043140
   7 H :   -0.043160

-------------------------------
LOEWDIN REDUCED ORBITAL CHARGES
-------------------------------
  0 Cus       :     6.309931  s :     6.309931
      pz      :     4.141952  p :    12.282422
      px      :     4.068460
      py      :     4.072011
      dz2     :     1.986257  d :     9.947116
      dxz     :     1.990178
      dyz     :     1.986845
      dx2y2   :     1.993210
      dxy     :     1.990626
      f0      :     0.000170  f :     0.000675
      f+1     :     0.000103
      f-1     :     0.000098
      f+2     :     0.000116
      f-2     :     0.000064
      f+3     :     0.000059
      f-3     :     0.000064
      g0      :     0.000000  g :     0.000002
      g+1     :     0.000000
      g-1     :     0.000000
      g+2     :     0.000000
      g-2     :     0.000000
      g+3     :     0.000000
      g-3     :     0.000000
      g+4     :     0.000000
      g-4     :     0.000000
  1 Cus       :     6.309932  s :     6.309932
      pz      :     4.141952  p :    12.282422
      px      :     4.068460
      py      :     4.072011
      dz2     :     1.986257  d :     9.947116
      dxz     :     1.990178
      dyz     :     1.986845
      dx2y2   :     1.993210
      dxy     :     1.990626
      f0      :     0.000170  f :     0.000675
      f+1     :     0.000103
      f-1     :     0.000098
      f+2     :     0.000116
      f-2     :     0.000064
      f+3     :     0.000059
      f-3     :     0.000064
      g0      :     0.000000  g :     0.000002
      g+1     :     0.000000
      g-1     :     0.000000
      g+2     :     0.000000
      g-2     :     0.000000
      g+3     :     0.000000
      g-3     :     0.000000
      g+4     :     0.000000
      g-4     :     0.000000
  2 Cus       :     6.309928  s :     6.309928
      pz      :     4.041203  p :    12.282402
      px      :     4.184417
      py      :     4.056782
      dz2     :     1.994752  d :     9.947131
      dxz     :     1.969997
      dyz     :     1.993398
      dx2y2   :     2.007383
      dxy     :     1.981601
      f0      :     0.000073  f :     0.000675
      f+1     :     0.000106
      f-1     :     0.000023
      f+2     :     0.000128
      f-2     :     0.000087
      f+3     :     0.000139
      f-3     :     0.000119
      g0      :     0.000000  g :     0.000002
      g+1     :     0.000000
      g-1     :     0.000000
      g+2     :     0.000000
      g-2     :     0.000000
      g+3     :     0.000000
      g-3     :     0.000000
      g+4     :     0.000000
      g-4     :     0.000000
  3 Cus       :     6.289645  s :     6.289645
      pz      :     4.046848  p :    12.495421
      px      :     4.057212
      py      :     4.391360
      dz2     :     1.992471  d :     9.937876
      dxz     :     1.990757
      dyz     :     1.979128
      dx2y2   :     1.993869
      dxy     :     1.981651
      f0      :     0.000113  f :     0.001637
      f+1     :     0.000046
      f-1     :     0.000369
      f+2     :     0.000183
      f-2     :     0.000077
      f+3     :     0.000324
      f-3     :     0.000525
      g0      :     0.000000  g :     0.000005
      g+1     :     0.000000
      g-1     :     0.000001
      g+2     :     0.000001
      g-2     :     0.000000
      g+3     :     0.000000
      g-3     :     0.000000
      g+4     :     0.000001
      g-4     :     0.000001
  4 N s       :     2.858249  s :     2.858249
      pz      :     1.103113  p :     3.459040
      px      :     1.107472
      py      :     1.248455
      dz2     :     0.043878  d :     0.198902
      dxz     :     0.027598
      dyz     :     0.037623
      dx2y2   :     0.064256
      dxy     :     0.025547
      f0      :     0.000159  f :     0.009353
      f+1     :     0.001845
      f-1     :     0.002236
      f+2     :     0.000579
      f-2     :     0.002263
      f+3     :     0.000913
      f-3     :     0.001357
  5 H s       :     0.623723  s :     0.623723
      pz      :     0.132268  p :     0.364085
      px      :     0.094064
      py      :     0.137753
      dz2     :     0.015591  d :     0.055332
      dxz     :     0.012129
      dyz     :     0.014757
      dx2y2   :     0.007148
      dxy     :     0.005707
  6 H s       :     0.623723  s :     0.623723
      pz      :     0.132268  p :     0.364085
      px      :     0.094064
      py      :     0.137753
      dz2     :     0.015591  d :     0.055332
      dxz     :     0.012129
      dyz     :     0.014757
      dx2y2   :     0.007148
      dxy     :     0.005707
  7 H s       :     0.623730  s :     0.623730
      pz      :     0.081557  p :     0.364091
      px      :     0.159536
      py      :     0.122997
      dz2     :     0.005034  d :     0.055339
      dxz     :     0.015766
      dyz     :     0.000690
      dx2y2   :     0.014469
      dxy     :     0.019382


                      *****************************
                      * MAYER POPULATION ANALYSIS *
                      *****************************

  NA   - Mulliken gross atomic population
  ZA   - Total nuclear charge
  QA   - Mulliken gross atomic charge
  VA   - Mayer's total valence
  BVA  - Mayer's bonded valence
  FA   - Mayer's free valence

  ATOM       NA         ZA         QA         VA         BVA        FA
  0 Cu    28.4839    29.0000     0.5161     1.1333     1.1333     0.0000
  1 Cu    28.4839    29.0000     0.5161     1.1333     1.1333     0.0000
  2 Cu    28.4840    29.0000     0.5160     1.1333     1.1333     0.0000
  3 Cu    28.9643    29.0000     0.0357     0.9001     0.9001    -0.0000
  4 N      7.2295     7.0000    -0.2295     3.3764     3.3764    -0.0000
  5 H      0.7848     1.0000     0.2152     1.0146     1.0146    -0.0000
  6 H      0.7848     1.0000     0.2152     1.0146     1.0146     0.0000
  7 H      0.7847     1.0000     0.2153     1.0143     1.0143    -0.0000

  Mayer bond orders larger than 0.100000
B(  0-Cu,  1-Cu) :   0.3863 B(  0-Cu,  2-Cu) :   0.3865 B(  0-Cu,  3-Cu) :   0.2571 
B(  1-Cu,  2-Cu) :   0.3865 B(  1-Cu,  3-Cu) :   0.2572 B(  2-Cu,  3-Cu) :   0.2571 
B(  3-Cu,  4-N ) :   0.2213 B(  4-N ,  5-H ) :   0.9779 B(  4-N ,  6-H ) :   0.9779 
B(  4-N ,  7-H ) :   0.9778 

-------
TIMINGS
-------

Total SCF time: 0 days 0 hours 0 min 23 sec 

Total time                  ....      23.533 sec
Sum of individual times     ....      23.227 sec  ( 98.7%)

Fock matrix formation       ....      22.253 sec  ( 94.6%)
  XC integration            ....       1.373 sec  (  6.2% of F)
    Basis function eval.    ....       0.122 sec  (  8.9% of XC)
    Density eval.           ....       0.255 sec  ( 18.5% of XC)
    XC-Functional eval.     ....       0.056 sec  (  4.1% of XC)
    XC-Potential eval.      ....       0.475 sec  ( 34.6% of XC)
Diagonalization             ....       0.265 sec  (  1.1%)
Density matrix formation    ....       0.022 sec  (  0.1%)
Population analysis         ....       0.018 sec  (  0.1%)
Initial guess               ....       0.148 sec  (  0.6%)
Orbital Transformation      ....       0.000 sec  (  0.0%)
Orbital Orthonormalization  ....       0.000 sec  (  0.0%)
DIIS solution               ....       0.147 sec  (  0.6%)
Grid generation             ....       0.375 sec  (  1.6%)


-------------------------------------------------------------------------------
                          DFT DISPERSION CORRECTION                            
                                                                               
                              DFTD3 V3.1  Rev 1                                
                          USING Becke-Johnson damping                          
-------------------------------------------------------------------------------
The TPSSH functional is recognized
Active option DFTDOPT                   ...         4   

molecular C6(AA) [au] = 3812.134516 


            DFT-D V3
 parameters
 s6 scaling factor         :     1.0000 
 a1 scaling factor         :     0.4529 
 s8 scaling factor         :     2.2382 
 a2 scaling factor         :     4.6550 
 ad hoc parameters k1-k3   :    16.0000     1.3333    -4.0000 

 Edisp/kcal,au: -7.449340704869  -0.011871278790 
 E6   /kcal   :  -2.557620931 
 E8   /kcal   :  -4.891719774 
 % E8         :  65.666479329 

-------------------------   ----------------
Dispersion correction           -0.011871279
-------------------------   ----------------


-------------------------   --------------------
FINAL SINGLE POINT ENERGY     -6618.220529572467
-------------------------   --------------------


                            ***************************************
                            *     ORCA property calculations      *
                            ***************************************

                                    ---------------------
                                    Active property flags
                                    ---------------------
   (+) Dipole Moment


------------------------------------------------------------------------------
                       ORCA ELECTRIC PROPERTIES CALCULATION
------------------------------------------------------------------------------

Dipole Moment Calculation                       ... on
Quadrupole Moment Calculation                   ... off
Polarizability Calculation                      ... off
GBWName                                         ... Cu04C2_NH3_A.gbw
Electron density file                           ... Cu04C2_NH3_A.scfp
The origin for moment calculation is the CENTER OF MASS  = (-0.020177, -0.116309  0.000000)

-------------
DIPOLE MOMENT
-------------
                                X             Y             Z
Electronic contribution:     -2.27475     -13.11018      -0.00000
Nuclear contribution   :      2.54223      14.65497       0.00000
                        -----------------------------------------
Total Dipole Moment    :      0.26748       1.54480      -0.00000
                        -----------------------------------------
Magnitude (a.u.)       :      1.56778
Magnitude (Debye)      :      3.98499



--------------------
Rotational spectrum 
--------------------
 
Rotational constants in cm-1:     0.046273     0.029218     0.029214 
Rotational constants in MHz :  1387.222495   875.924520   875.809559 

 Dipole components along the rotational axes: 
x,y,z [a.u.] :    -1.567783    -0.000000     0.001135 
x,y,z [Debye]:    -3.984987    -0.000000     0.002884 

 

Timings for individual modules:

Sum of individual times         ...       24.802 sec (=   0.413 min)
GTO integral calculation        ...        0.890 sec (=   0.015 min)   3.6 %
SCF iterations                  ...       23.912 sec (=   0.399 min)  96.4 %
                             ****ORCA TERMINATED NORMALLY****
TOTAL RUN TIME: 0 days 0 hours 0 minutes 25 seconds 321 msec
