
                                 *****************
                                 * O   R   C   A *
                                 *****************

           --- An Ab Initio, DFT and Semiempirical electronic structure package ---

                  #######################################################
                  #                        -***-                        #
                  #          Department of theory and spectroscopy      #
                  #               Directorship: Frank Neese             #
                  #        Max Planck Institute fuer Kohlenforschung    #
                  #                Kaiser Wilhelm Platz 1               #
                  #                 D-45470 Muelheim/Ruhr               #
                  #                      Germany                        #
                  #                                                     #
                  #                  All rights reserved                #
                  #                        -***-                        #
                  #######################################################


                         Program Version 4.2.0 -  RELEASE  -


 With contributions from (in alphabetic order):
   Daniel Aravena         : Magnetic Suceptibility
   Michael Atanasov       : Ab Initio Ligand Field Theory (pilot matlab implementation)
   Alexander A. Auer      : GIAO ZORA, VPT2
   Ute Becker             : Parallelization
   Giovanni Bistoni       : ED, misc. LED, open-shell LED, HFLED
   Martin Brehm           : Molecular dynamics
   Dmytro Bykov           : SCF Hessian
   Vijay G. Chilkuri      : MRCI spin determinant printing, contributions to CSF-ICE
   Dipayan Datta          : RHF DLPNO-CCSD density
   Achintya Kumar Dutta   : EOM-CC, STEOM-CC
   Dmitry Ganyushin       : Spin-Orbit,Spin-Spin,Magnetic field MRCI
   Miquel Garcia          : C-PCM Hessian, Gaussian charge scheme
   Yang Guo               : DLPNO-NEVPT2, CIM, IAO-localization
   Andreas Hansen         : Spin unrestricted coupled pair/coupled cluster methods
   Benjamin Helmich-Paris : CASSCF linear response (MC-RPA)
   Lee Huntington         : MR-EOM, pCC
   Robert Izsak           : Overlap fitted RIJCOSX, COSX-SCS-MP3, EOM
   Christian Kollmar      : KDIIS, OOCD, Brueckner-CCSD(T), CCSD density
   Simone Kossmann        : Meta GGA functionals, TD-DFT gradient, OOMP2, MP2 Hessian
   Martin Krupicka        : AUTO-CI
   Lucas Lang             : DCDCAS
   Dagmar Lenk            : GEPOL surface, SMD
   Dimitrios Liakos       : Extrapolation schemes; Compound Job, initial MDCI parallelization
   Dimitrios Manganas     : Further ROCIS development; embedding schemes
   Dimitrios Pantazis     : SARC Basis sets
   Taras Petrenko         : DFT Hessian,TD-DFT gradient, ASA, ECA, R-Raman, ABS, FL, XAS/XES, NRVS
   Peter Pinski           : DLPNO-MP2, DLPNO-MP2 Gradient
   Christoph Reimann      : Effective Core Potentials
   Marius Retegan         : Local ZFS, SOC
   Christoph Riplinger    : Optimizer, TS searches, QM/MM, DLPNO-CCSD(T), (RO)-DLPNO pert. Triples
   Tobias Risthaus        : Range-separated hybrids, TD-DFT gradient, RPA, STAB
   Michael Roemelt        : Original ROCIS implementation
   Masaaki Saitow         : Open-shell DLPNO-CCSD energy and density
   Barbara Sandhoefer     : DKH picture change effects
   Avijit Sen             : IP-ROCIS
   Kantharuban Sivalingam : CASSCF convergence, NEVPT2, FIC-MRCI
   Bernardo de Souza      : ESD, SOC TD-DFT
   Georgi Stoychev        : AutoAux, RI-MP2 NMR
   Willem Van den Heuvel  : Paramagnetic NMR
   Boris Wezisla          : Elementary symmetry handling
   Frank Wennmohs         : Technical directorship


 We gratefully acknowledge several colleagues who have allowed us to
 interface, adapt or use parts of their codes:
   Stefan Grimme, W. Hujo, H. Kruse,             : VdW corrections, initial TS optimization,
                  C. Bannwarth                     DFT functionals, gCP, sTDA/sTD-DF
   Ed Valeev, F. Pavosevic, A. Kumar             : LibInt (2-el integral package), F12 methods
   Garnet Chan, S. Sharma, J. Yang, R. Olivares  : DMRG
   Ulf Ekstrom                                   : XCFun DFT Library
   Mihaly Kallay                                 : mrcc  (arbitrary order and MRCC methods)
   Andreas Klamt, Michael Diedenhofen            : otool_cosmo (COSMO solvation model)
   Jiri Pittner, Ondrej Demel                    : Mk-CCSD
   Frank Weinhold                                : gennbo (NPA and NBO analysis)
   Christopher J. Cramer and Donald G. Truhlar   : smd solvation model
   Lars Goerigk                                  : TD-DFT with DH, B97 family of functionals
   V. Asgeirsson, H. Jonsson                     : NEB implementation
   FAccTs GmbH                                   : IRC, NEB, NEB-TS, Multilevel, MM, QM/MM, CI optimization
   S Lehtola, MJT Oliveira, MAL Marques          : LibXC Library


 Your calculation uses the libint2 library for the computation of 2-el integrals
 For citations please refer to: http://libint.valeyev.net

 Your ORCA version has been built with support for libXC version: 4.2.3
 For citations please refer to: https://tddft.org/programs/libxc/

 This ORCA versions uses:
   CBLAS   interface :  Fast vector & matrix operations
   LAPACKE interface :  Fast linear algebra routines
   SCALAPACK package :  Parallel linear algebra routines


Your calculation utilizes the atom-pairwise dispersion correction
with the Becke-Johnson damping scheme (D3BJ)
Cite in your paper:
S.Grimme, S.Ehrlich, L.Goerigk, J Comput Chem, (2011), 32, 1456–1465 
S.Grimme, J.Antony, S.Ehrlich and H.Krieg, J.Chem.Phys., 132, (2010), 154104 
   

----- Orbital basis set information -----
Your calculation utilizes the basis: def2-TZVPPD
   F. Weigend and R. Ahlrichs, Phys. Chem. Chem. Phys. 7, 3297 (2005).
   D. Rappoport and F. Furche, J. Chem. Phys. 133 134105 (2010).

----- AuxJK basis set information -----
Your calculation utilizes the auxiliary basis: def2/JK
   H-Ba, Hf-Rn: F. Weigend, J. Comput. Chem. 29, 167 (2008).

================================================================================
                                        WARNINGS
                       Please study these warnings very carefully!
================================================================================


WARNING: your system is open-shell and RHF/RKS was chosen
  ===> : WILL SWITCH to UHF/UKS


INFO   : the flag for use of LIBINT has been found!

================================================================================
                                       INPUT FILE
================================================================================
NAME = Cu04C2_H_F.in
|  1> #
|  2> # Cu04C2_H_F TPSSh-D3BJ/Def2-TZVPPD
|  3> #
|  4> ! tpssh d3bj def2-tzvppd def2/jk grid4 nofinalgrid
|  5> 
|  6> *xyz 2 2
|  7> Cu      -0.000000    1.387730   -0.507533 
|  8> Cu       1.201809   -0.693865   -0.507533 
|  9> Cu      -1.201809   -0.693865   -0.507533 
| 10> Cu       0.000000    0.000000    1.576640 
| 11> H        0.000000    0.000000   -1.567185 
| 12> *
| 13> 
| 14> %maxcore 5000
| 15> 
| 16> %pal
| 17> nprocs = 24
| 18> end
| 19> 
| 20> 
| 21>                          ****END OF INPUT****
================================================================================

                       ****************************
                       * Single Point Calculation *
                       ****************************

---------------------------------
CARTESIAN COORDINATES (ANGSTROEM)
---------------------------------
  Cu    -0.000000    1.387730   -0.507533
  Cu     1.201809   -0.693865   -0.507533
  Cu    -1.201809   -0.693865   -0.507533
  Cu     0.000000    0.000000    1.576640
  H      0.000000    0.000000   -1.567185

----------------------------
CARTESIAN COORDINATES (A.U.)
----------------------------
  NO LB      ZA    FRAG     MASS         X           Y           Z
   0 Cu   29.0000    0    63.550   -0.000000    2.622430   -0.959098
   1 Cu   29.0000    0    63.550    2.271090   -1.311215   -0.959098
   2 Cu   29.0000    0    63.550   -2.271090   -1.311215   -0.959098
   3 Cu   29.0000    0    63.550    0.000000    0.000000    2.979418
   4 H     1.0000    0     1.008    0.000000    0.000000   -2.961550

--------------------------------
INTERNAL COORDINATES (ANGSTROEM)
--------------------------------
 Cu     0   0   0     0.000000000000     0.00000000     0.00000000
 Cu     1   0   0     2.403618650391     0.00000000     0.00000000
 Cu     2   1   0     2.403618000000    60.00000895     0.00000000
 Cu     2   1   3     2.503911061646    61.31637692   288.41368009
 H      2   1   3     1.746040054469    46.50387012    56.78304359

---------------------------
INTERNAL COORDINATES (A.U.)
---------------------------
 Cu     0   0   0     0.000000000000     0.00000000     0.00000000
 Cu     1   0   0     4.542180979624     0.00000000     0.00000000
 Cu     2   1   0     4.542179750564    60.00000895     0.00000000
 Cu     2   1   3     4.731706170208    61.31637692   288.41368009
 H      2   1   3     3.299537521803    46.50387012    56.78304359

---------------------
BASIS SET INFORMATION
---------------------
There are 2 groups of distinct atoms

 Group   1 Type Cu  : 17s13p7d2f1g contracted to 6s6p4d2f1g pattern {842111/631111/4111/11/1}
 Group   2 Type H   : 5s3p1d contracted to 3s3p1d pattern {311/111/1}

Atom   0Cu   basis set group =>   1
Atom   1Cu   basis set group =>   1
Atom   2Cu   basis set group =>   1
Atom   3Cu   basis set group =>   1
Atom   4H    basis set group =>   2
----------------------------------
AUXILIARY/JK BASIS SET INFORMATION
----------------------------------
There are 2 groups of distinct atoms

 Group   1 Type Cu  : 19s14p12d10f7g3h1i contracted to 16s13p11d9f5g3h1i pattern {4111111111111111/2111111111111/21111111111/211111111/31111/111/1}
 Group   2 Type H   : 4s2p2d contracted to 2s2p2d pattern {31/11/11}

Atom   0Cu   basis set group =>   1
Atom   1Cu   basis set group =>   1
Atom   2Cu   basis set group =>   1
Atom   3Cu   basis set group =>   1
Atom   4H    basis set group =>   2


           ************************************************************
           *        Program running with 24 parallel MPI-processes    *
           *              working on a common directory               *
           ************************************************************
------------------------------------------------------------------------------
                           ORCA GTO INTEGRAL CALCULATION
------------------------------------------------------------------------------

                         BASIS SET STATISTICS AND STARTUP INFO

 # of primitive gaussian shells          ...  169
 # of primitive gaussian functions       ...  475
 # of contracted shells                  ...   83
 # of contracted basis functions         ...  285
 Highest angular momentum                ...    4
 Maximum contraction depth               ...    8
 Integral package used                   ... LIBINT
 Integral threshhold            Thresh   ...  1.000e-10
 Primitive cut-off              TCut     ...  1.000e-11


------------------------------ INTEGRAL EVALUATION ----------------------------


 * One electron integrals 
 Pre-screening matrix                    ... done
 Shell pair data                         ... done (   0.001 sec)



           ************************************************************
           *        Program running with 24 parallel MPI-processes    *
           *              working on a common directory               *
           ************************************************************
-------------------------------------------------------------------------------
                                 ORCA SCF
-------------------------------------------------------------------------------

------------
SCF SETTINGS
------------
Hamiltonian:
 Density Functional     Method          .... DFT(GTOs)
 Exchange Functional    Exchange        .... TPSS
 Correlation Functional Correlation     .... TPSS
 LDA part of GGA corr.  LDAOpt          .... PW91-LDA
 Gradients option       PostSCFGGA      .... off
 Hybrid DFT is turned on
   Fraction HF Exchange ScalHFX         ....  0.100000
   Scaling of DF-GGA-X  ScalDFX         ....  0.900000
   Scaling of DF-GGA-C  ScalDFC         ....  1.000000
   Scaling of DF-LDA-C  ScalLDAC        ....  1.000000
   Perturbative correction              ....  0.000000
   Density functional embedding theory  .... OFF
   NL short-range parameter             ....  5.200000


General Settings:
 Integral files         IntName         .... Cu04C2_H_F
 Hartree-Fock type      HFTyp           .... UHF
 Total Charge           Charge          ....    2
 Multiplicity           Mult            ....    2
 Number of Electrons    NEL             ....  115
 Basis Dimension        Dim             ....  285
 Nuclear Repulsion      ENuc            ....   1119.9202277639 Eh

Convergence Acceleration:
 DIIS                   CNVDIIS         .... on
   Start iteration      DIISMaxIt       ....    12
   Startup error        DIISStart       ....  0.200000
   # of expansion vecs  DIISMaxEq       ....     5
   Bias factor          DIISBfac        ....   1.050
   Max. coefficient     DIISMaxC        ....  10.000
 Newton-Raphson         CNVNR           .... off
 SOSCF                  CNVSOSCF        .... off
 Level Shifting         CNVShift        .... on
   Level shift para.    LevelShift      ....    0.2500
   Turn off err/grad.   ShiftErr        ....    0.0010
 Zerner damping         CNVZerner       .... off
 Static damping         CNVDamp         .... on
   Fraction old density DampFac         ....    0.7000
   Max. Damping (<1)    DampMax         ....    0.9800
   Min. Damping (>=0)   DampMin         ....    0.0000
   Turn off err/grad.   DampErr         ....    0.1000
 Fernandez-Rico         CNVRico         .... off

SCF Procedure:
 Maximum # iterations   MaxIter         ....   125
 SCF integral mode      SCFMode         .... Direct
   Integral package                     .... LIBINT
 Reset frequency        DirectResetFreq ....    20
 Integral Threshold     Thresh          ....  1.000e-10 Eh
 Primitive CutOff       TCut            ....  1.000e-11 Eh

Convergence Tolerance:
 Convergence Check Mode ConvCheckMode   .... Total+1el-Energy
 Convergence forced     ConvForced      .... 0
 Energy Change          TolE            ....  1.000e-06 Eh
 1-El. energy change                    ....  1.000e-03 Eh
 DIIS Error             TolErr          ....  1.000e-06


Diagonalization of the overlap matrix:
Smallest eigenvalue                        ... 6.380e-04
Time for diagonalization                   ...    0.012 sec
Threshold for overlap eigenvalues          ... 1.000e-08
Number of eigenvalues below threshold      ... 0
Time for construction of square roots      ...    0.010 sec
Total time needed                          ...    0.022 sec

-------------------
DFT GRID GENERATION
-------------------

General Integration Accuracy     IntAcc      ...  4.670
Radial Grid Type                 RadialGrid  ... Gauss-Chebyshev
Angular Grid (max. acc.)         AngularGrid ... Lebedev-302
Angular grid pruning method      GridPruning ... 3 (G Style)
Weight generation scheme         WeightScheme... Becke
Basis function cutoff            BFCut       ...    1.0000e-10
Integration weight cutoff        WCut        ...    1.0000e-14
Grids for H and He will be reduced by one unit

# of grid points (after initial pruning)     ...  41618 (   0.0 sec)
# of grid points (after weights+screening)   ...  40798 (   0.0 sec)
nearest neighbour list constructed           ...    0.0 sec
Grid point re-assignment to atoms done       ...    0.0 sec
Grid point division into batches done        ...    0.3 sec
Reduced shell lists constructed in    0.3 sec

Total number of grid points                  ...    40798
Total number of batches                      ...      640
Average number of points per batch           ...       63
Average number of grid points per atom       ...     8160
Average number of shells per batch           ...    23.54 (28.36%)
Average number of basis functions per batch  ...    65.96 (23.15%)
Average number of large shells per batch     ...    17.86 (75.87%)
Average number of large basis fcns per batch ...    49.07 (74.39%)
Maximum spatial batch extension              ...  20.21, 15.25, 22.17 au
Average spatial batch extension              ...   0.39,  0.33,  0.38 au

Time for grid setup =    0.327 sec

------------------------------
INITIAL GUESS: MODEL POTENTIAL
------------------------------
Loading Hartree-Fock densities                     ... done
Calculating cut-offs                               ... done
Setting up the integral package                    ... done
Initializing the effective Hamiltonian             ... done
Starting the Coulomb interaction                   ... done (   0.0 sec)
Reading the grid                                   ... done
Mapping shells                                     ... done
Starting the XC term evaluation                    ... done (   0.0 sec)
  promolecular density results
     # of electrons  =    116.999555128
     EX              =   -262.356282509
     EC              =     -5.468673781
     EX+EC           =   -267.824956290
Transforming the Hamiltonian                       ... done (   0.0 sec)
Diagonalizing the Hamiltonian                      ... done (   0.0 sec)
Back transforming the eigenvectors                 ... done (   0.0 sec)
Now organizing SCF variables                       ... done
                      ------------------
                      INITIAL GUESS DONE (   0.5 sec)
                      ------------------
--------------
SCF ITERATIONS
--------------
ITER       Energy         Delta-E        Max-DP      RMS-DP      [F,P]     Damp
               ***  Starting incremental Fock matrix formation  ***
  0  -6562.0435084757   0.000000000000 0.03209638  0.00030651  0.1014953 0.7000
  1  -6562.0597538039  -0.016245328170 0.02120272  0.00021761  0.0345427 0.7000
                               ***Turning on DIIS***
  2  -6562.0675215099  -0.007767706078 0.04740041  0.00047756  0.0216441 0.0000
  3  -6562.0810992595  -0.013577749515 0.00610968  0.00010363  0.0388789 0.0000
  4  -6562.0837922555  -0.002692996061 0.00349429  0.00005238  0.0112473 0.0000
  5  -6562.0839546793  -0.000162423730 0.00415808  0.00002856  0.0121040 0.0000
  6  -6562.0841116212  -0.000156941961 0.00506827  0.00003325  0.0009725 0.0000
  7  -6562.0841298543  -0.000018233078 0.00027663  0.00000509  0.0020907 0.0000
  8  -6562.0841417336  -0.000011879303 0.00071266  0.00000901  0.0001939 0.0000
  9  -6562.0841441109  -0.000002377311 0.00071178  0.00000416  0.0004241 0.0000
 10  -6562.0841446205  -0.000000509580 0.00010797  0.00000119  0.0001112 0.0000
 11  -6562.0841446948  -0.000000074297 0.00008282  0.00000069  0.0000155 0.0000
                 **** Energy Check signals convergence ****

               *****************************************************
               *                     SUCCESS                       *
               *           SCF CONVERGED AFTER  12 CYCLES          *
               *****************************************************


----------------
TOTAL SCF ENERGY
----------------

Total Energy       :        -6562.08414471 Eh         -178563.38756 eV

Components:
Nuclear Repulsion  :         1119.92022776 Eh           30474.57870 eV
Electronic Energy  :        -7682.00437247 Eh         -209037.96626 eV
One Electron Energy:       -11338.63410071 Eh         -308539.91975 eV
Two Electron Energy:         3656.62972824 Eh           99501.95349 eV

Virial components:
Potential Energy   :       -13113.83346805 Eh         -356845.55034 eV
Kinetic Energy     :         6551.74932334 Eh          178282.16278 eV
Virial Ratio       :            2.00157741


DFT components:
N(Alpha)           :       57.999977894436 electrons
N(Beta)            :       56.999975472618 electrons
N(Total)           :      114.999953367054 electrons
E(X)               :     -237.067778376590 Eh       
E(C)               :       -5.456558848964 Eh       
E(XC)              :     -242.524337225554 Eh       
DFET-embed. en.    :        0.000000000000 Eh       

---------------
SCF CONVERGENCE
---------------

  Last Energy change         ...   -1.6079e-08  Tolerance :   1.0000e-06
  Last MAX-Density change    ...    1.8050e-05  Tolerance :   1.0000e-05
  Last RMS-Density change    ...    2.7513e-07  Tolerance :   1.0000e-06
  Last DIIS Error            ...    2.4705e-05  Tolerance :   1.0000e-06

             **** THE GBW FILE WAS UPDATED (Cu04C2_H_F.gbw) ****
             **** DENSITY FILE WAS UPDATED (Cu04C2_H_F.scfp) ****
             **** ENERGY FILE WAS UPDATED (Cu04C2_H_F.en.tmp) ****
----------------------
UHF SPIN CONTAMINATION
----------------------

Warning: in a DFT calculation there is little theoretical justification to 
         calculate <S**2> as in Hartree-Fock theory. We will do it anyways
         but you should keep in mind that the values have only limited relevance

Expectation value of <S**2>     :     0.755626
Ideal value S*(S+1) for S=0.5   :     0.750000
Deviation                       :     0.005626

             **** THE GBW FILE WAS UPDATED (Cu04C2_H_F.gbw) ****
             **** DENSITY FILE WAS UPDATED (Cu04C2_H_F.scfp) ****
----------------
ORBITAL ENERGIES
----------------
                 SPIN UP ORBITALS
  NO   OCC          E(Eh)            E(eV) 
   0   1.0000    -323.191813     -8794.4963 
   1   1.0000    -323.191800     -8794.4960 
   2   1.0000    -323.191795     -8794.4959 
   3   1.0000    -323.162587     -8793.7011 
   4   1.0000     -39.065637     -1063.0300 
   5   1.0000     -39.065628     -1063.0298 
   6   1.0000     -39.065596     -1063.0289 
   7   1.0000     -39.034623     -1062.1861 
   8   1.0000     -34.243477      -931.8124 
   9   1.0000     -34.243467      -931.8121 
  10   1.0000     -34.243460      -931.8119 
  11   1.0000     -34.241955      -931.7710 
  12   1.0000     -34.241944      -931.7707 
  13   1.0000     -34.241940      -931.7706 
  14   1.0000     -34.240961      -931.7439 
  15   1.0000     -34.240945      -931.7435 
  16   1.0000     -34.240940      -931.7433 
  17   1.0000     -34.212395      -930.9666 
  18   1.0000     -34.210798      -930.9231 
  19   1.0000     -34.210797      -930.9231 
  20   1.0000      -4.669178      -127.0548 
  21   1.0000      -4.668809      -127.0448 
  22   1.0000      -4.668802      -127.0446 
  23   1.0000      -4.635597      -126.1410 
  24   1.0000      -3.166108       -86.1542 
  25   1.0000      -3.163549       -86.0845 
  26   1.0000      -3.163542       -86.0843 
  27   1.0000      -3.159729       -85.9806 
  28   1.0000      -3.159301       -85.9689 
  29   1.0000      -3.159292       -85.9687 
  30   1.0000      -3.157095       -85.9089 
  31   1.0000      -3.157093       -85.9089 
  32   1.0000      -3.156106       -85.8820 
  33   1.0000      -3.128919       -85.1422 
  34   1.0000      -3.125520       -85.0497 
  35   1.0000      -3.125519       -85.0497 
  36   1.0000      -0.823674       -22.4133 
  37   1.0000      -0.725339       -19.7375 
  38   1.0000      -0.691555       -18.8182 
  39   1.0000      -0.691544       -18.8179 
  40   1.0000      -0.682863       -18.5817 
  41   1.0000      -0.680771       -18.5247 
  42   1.0000      -0.680762       -18.5245 
  43   1.0000      -0.673726       -18.3330 
  44   1.0000      -0.666577       -18.1385 
  45   1.0000      -0.666568       -18.1382 
  46   1.0000      -0.659551       -17.9473 
  47   1.0000      -0.659540       -17.9470 
  48   1.0000      -0.654794       -17.8178 
  49   1.0000      -0.654771       -17.8172 
  50   1.0000      -0.654006       -17.7964 
  51   1.0000      -0.639369       -17.3981 
  52   1.0000      -0.631632       -17.1876 
  53   1.0000      -0.631628       -17.1875 
  54   1.0000      -0.631597       -17.1866 
  55   1.0000      -0.626066       -17.0361 
  56   1.0000      -0.626039       -17.0354 
  57   1.0000      -0.570832       -15.5331 
  58   0.0000      -0.485338       -13.2067 
  59   0.0000      -0.485335       -13.2066 
  60   0.0000      -0.402951       -10.9648 
  61   0.0000      -0.368861       -10.0372 
  62   0.0000      -0.347837        -9.4651 
  63   0.0000      -0.347837        -9.4651 
  64   0.0000      -0.343407        -9.3446 
  65   0.0000      -0.343404        -9.3445 
  66   0.0000      -0.223371        -6.0782 
  67   0.0000      -0.207295        -5.6408 
  68   0.0000      -0.207294        -5.6408 
  69   0.0000      -0.206482        -5.6187 
  70   0.0000      -0.203891        -5.5482 
  71   0.0000      -0.203890        -5.5481 
  72   0.0000      -0.193874        -5.2756 
  73   0.0000      -0.167644        -4.5618 
  74   0.0000      -0.151745        -4.1292 
  75   0.0000      -0.145348        -3.9551 
  76   0.0000      -0.145348        -3.9551 
  77   0.0000      -0.142676        -3.8824 
  78   0.0000      -0.141639        -3.8542 
  79   0.0000      -0.141637        -3.8541 
  80   0.0000      -0.135105        -3.6764 
  81   0.0000      -0.135102        -3.6763 
  82   0.0000      -0.079784        -2.1710 
  83   0.0000      -0.075686        -2.0595 
  84   0.0000      -0.075684        -2.0595 
  85   0.0000      -0.071435        -1.9438 
  86   0.0000      -0.071433        -1.9438 
  87   0.0000      -0.066411        -1.8071 
  88   0.0000      -0.062448        -1.6993 
  89   0.0000      -0.044806        -1.2192 
  90   0.0000      -0.044804        -1.2192 
  91   0.0000      -0.039749        -1.0816 
  92   0.0000      -0.025880        -0.7042 
  93   0.0000      -0.025878        -0.7042 
  94   0.0000      -0.019118        -0.5202 
  95   0.0000      -0.019118        -0.5202 
  96   0.0000      -0.011009        -0.2996 
  97   0.0000       0.002566         0.0698 
  98   0.0000       0.015179         0.4130 
  99   0.0000       0.043696         1.1890 
 100   0.0000       0.043696         1.1890 
 101   0.0000       0.048401         1.3171 
 102   0.0000       0.048402         1.3171 
 103   0.0000       0.071643         1.9495 
 104   0.0000       0.104842         2.8529 
 105   0.0000       0.107044         2.9128 
 106   0.0000       0.107050         2.9130 
 107   0.0000       0.114435         3.1139 
 108   0.0000       0.114436         3.1140 
 109   0.0000       0.126718         3.4482 
 110   0.0000       0.133057         3.6207 
 111   0.0000       0.133061         3.6208 
 112   0.0000       0.263970         7.1830 
 113   0.0000       0.329385         8.9630 
 114   0.0000       0.339707         9.2439 
 115   0.0000       0.339717         9.2442 
 116   0.0000       0.359442         9.7809 
 117   0.0000       0.359447         9.7811 
 118   0.0000       0.363709         9.8970 
 119   0.0000       0.410866        11.1802 
 120   0.0000       0.410870        11.1803 
 121   0.0000       0.437210        11.8971 
 122   0.0000       0.443082        12.0569 
 123   0.0000       0.443085        12.0570 
 124   0.0000       0.481913        13.1135 
 125   0.0000       0.506767        13.7898 
 126   0.0000       0.506770        13.7899 
 127   0.0000       0.531278        14.4568 
 128   0.0000       0.537019        14.6130 
 129   0.0000       0.537035        14.6135 
 130   0.0000       0.550273        14.9737 
 131   0.0000       0.575923        15.6717 
 132   0.0000       0.575924        15.6717 
 133   0.0000       0.607531        16.5318 
 134   0.0000       0.616283        16.7699 
 135   0.0000       0.616283        16.7699 
 136   0.0000       0.650486        17.7006 
 137   0.0000       0.661036        17.9877 
 138   0.0000       0.661043        17.9879 
 139   0.0000       0.800464        21.7817 
 140   0.0000       0.802539        21.8382 
 141   0.0000       0.802548        21.8384 
 142   0.0000       0.822051        22.3691 
 143   0.0000       0.822067        22.3696 
 144   0.0000       0.856415        23.3042 
 145   0.0000       0.973257        26.4837 
 146   0.0000       0.973283        26.4844 
 147   0.0000       1.054214        28.6866 
 148   0.0000       2.313734        62.9599 
 149   0.0000       2.546952        69.3061 
 150   0.0000       2.546991        69.3071 
 151   0.0000       2.575783        70.0906 
 152   0.0000       2.580956        70.2314 
 153   0.0000       2.580978        70.2320 
 154   0.0000       2.603752        70.8517 
 155   0.0000       2.653062        72.1935 
 156   0.0000       2.653104        72.1946 
 157   0.0000       2.725794        74.1726 
 158   0.0000       2.725812        74.1731 
 159   0.0000       2.726562        74.1935 
 160   0.0000       2.733784        74.3900 
 161   0.0000       2.733791        74.3902 
 162   0.0000       2.781388        75.6854 
 163   0.0000       2.855392        77.6992 
 164   0.0000       2.856144        77.7196 
 165   0.0000       2.856157        77.7200 
 166   0.0000       2.924047        79.5674 
 167   0.0000       2.965164        80.6862 
 168   0.0000       2.968340        80.7726 
 169   0.0000       2.968357        80.7731 
 170   0.0000       2.985049        81.2273 
 171   0.0000       2.986660        81.2711 
 172   0.0000       2.986682        81.2717 
 173   0.0000       2.987110        81.2834 
 174   0.0000       2.987617        81.2972 
 175   0.0000       2.987647        81.2980 
 176   0.0000       2.992516        81.4305 
 177   0.0000       2.992526        81.4308 
 178   0.0000       3.003806        81.7377 
 179   0.0000       3.009287        81.8869 
 180   0.0000       3.009297        81.8871 
 181   0.0000       3.011505        81.9472 
 182   0.0000       3.030757        82.4711 
 183   0.0000       3.036779        82.6350 
 184   0.0000       3.036798        82.6355 
 185   0.0000       3.038368        82.6782 
 186   0.0000       3.044475        82.8444 
 187   0.0000       3.044476        82.8444 
 188   0.0000       3.049661        82.9855 
 189   0.0000       3.137911        85.3869 
 190   0.0000       3.172783        86.3358 
 191   0.0000       3.172794        86.3361 
 192   0.0000       3.233445        87.9865 
 193   0.0000       3.233456        87.9868 
 194   0.0000       3.237186        88.0883 
 195   0.0000       3.253988        88.5455 
 196   0.0000       3.254005        88.5460 
 197   0.0000       3.308038        90.0163 
 198   0.0000       3.331412        90.6523 
 199   0.0000       3.331448        90.6533 
 200   0.0000       3.347049        91.0778 
 201   0.0000       3.347053        91.0779 
 202   0.0000       3.355856        91.3175 
 203   0.0000       3.436472        93.5111 
 204   0.0000       3.466918        94.3396 
 205   0.0000       3.469114        94.3994 
 206   0.0000       3.469119        94.3995 
 207   0.0000       3.505064        95.3776 
 208   0.0000       3.505071        95.3778 
 209   0.0000       3.523389        95.8763 
 210   0.0000       3.523416        95.8770 
 211   0.0000       3.545074        96.4664 
 212   0.0000       3.617894        98.4479 
 213   0.0000       3.617918        98.4485 
 214   0.0000       3.642251        99.1107 
 215   0.0000       3.891898       105.9039 
 216   0.0000       4.121462       112.1507 
 217   0.0000       4.121521       112.1523 
 218   0.0000       4.343091       118.1815 
 219   0.0000       4.413483       120.0970 
 220   0.0000       4.413588       120.0998 
 221   0.0000      12.546948       341.4198 
 222   0.0000      12.547064       341.4230 
 223   0.0000      12.547302       341.4294 
 224   0.0000      12.548284       341.4562 
 225   0.0000      12.548522       341.4626 
 226   0.0000      12.548619       341.4653 
 227   0.0000      12.548948       341.4742 
 228   0.0000      12.548969       341.4748 
 229   0.0000      12.549240       341.4822 
 230   0.0000      12.550037       341.5039 
 231   0.0000      12.550126       341.5063 
 232   0.0000      12.550186       341.5079 
 233   0.0000      12.550304       341.5111 
 234   0.0000      12.550544       341.5177 
 235   0.0000      12.550676       341.5213 
 236   0.0000      12.551055       341.5316 
 237   0.0000      12.551251       341.5369 
 238   0.0000      12.551379       341.5404 
 239   0.0000      12.552132       341.5609 
 240   0.0000      12.552174       341.5620 
 241   0.0000      12.552287       341.5651 
 242   0.0000      12.554830       341.6343 
 243   0.0000      12.555025       341.6396 
 244   0.0000      12.555117       341.6421 
 245   0.0000      12.555142       341.6428 
 246   0.0000      12.555237       341.6454 
 247   0.0000      12.555253       341.6458 
 248   0.0000      12.581408       342.3575 
 249   0.0000      12.582018       342.3741 
 250   0.0000      12.582093       342.3761 
 251   0.0000      12.582643       342.3911 
 252   0.0000      12.582754       342.3942 
 253   0.0000      12.583178       342.4057 
 254   0.0000      12.583908       342.4255 
 255   0.0000      12.586358       342.4922 
 256   0.0000      12.586361       342.4923 
 257   0.0000      12.657623       344.4314 
 258   0.0000      12.658398       344.4525 
 259   0.0000      12.659099       344.4716 
 260   0.0000      12.659252       344.4758 
 261   0.0000      12.659277       344.4764 
 262   0.0000      12.662814       344.5727 
 263   0.0000      12.662828       344.5731 
 264   0.0000      12.665371       344.6423 
 265   0.0000      12.665373       344.6423 
 266   0.0000      12.666991       344.6863 
 267   0.0000      12.667009       344.6868 
 268   0.0000      12.674013       344.8774 
 269   0.0000      12.674020       344.8776 
 270   0.0000      12.674779       344.8983 
 271   0.0000      12.689594       345.3014 
 272   0.0000      12.690725       345.3322 
 273   0.0000      12.692181       345.3718 
 274   0.0000      12.692229       345.3731 
 275   0.0000      12.692775       345.3880 
 276   0.0000      12.715718       346.0123 
 277   0.0000      12.725345       346.2742 
 278   0.0000      12.725395       346.2756 
 279   0.0000      12.728557       346.3616 
 280   0.0000      12.739923       346.6709 
 281   0.0000      12.739951       346.6717 
 282   0.0000      12.816697       348.7600 
 283   0.0000      12.816713       348.7605 
 284   0.0000      12.901240       351.0606 

                 SPIN DOWN ORBITALS
  NO   OCC          E(Eh)            E(eV) 
   0   1.0000    -323.191667     -8794.4924 
   1   1.0000    -323.191654     -8794.4920 
   2   1.0000    -323.191649     -8794.4919 
   3   1.0000    -323.162082     -8793.6873 
   4   1.0000     -39.063463     -1062.9709 
   5   1.0000     -39.063453     -1062.9706 
   6   1.0000     -39.063422     -1062.9698 
   7   1.0000     -39.035356     -1062.2060 
   8   1.0000     -34.240646      -931.7353 
   9   1.0000     -34.240635      -931.7350 
  10   1.0000     -34.240628      -931.7349 
  11   1.0000     -34.240362      -931.7276 
  12   1.0000     -34.240345      -931.7272 
  13   1.0000     -34.240340      -931.7270 
  14   1.0000     -34.239670      -931.7088 
  15   1.0000     -34.239659      -931.7085 
  16   1.0000     -34.239653      -931.7083 
  17   1.0000     -34.212901      -930.9804 
  18   1.0000     -34.211511      -930.9426 
  19   1.0000     -34.211510      -930.9425 
  20   1.0000      -4.664272      -126.9213 
  21   1.0000      -4.663903      -126.9112 
  22   1.0000      -4.663895      -126.9110 
  23   1.0000      -4.636748      -126.1723 
  24   1.0000      -3.159054       -85.9622 
  25   1.0000      -3.156880       -85.9031 
  26   1.0000      -3.156878       -85.9030 
  27   1.0000      -3.155154       -85.8561 
  28   1.0000      -3.155151       -85.8560 
  29   1.0000      -3.154607       -85.8412 
  30   1.0000      -3.153049       -85.7988 
  31   1.0000      -3.152703       -85.7894 
  32   1.0000      -3.152692       -85.7891 
  33   1.0000      -3.130758       -85.1922 
  34   1.0000      -3.126540       -85.0775 
  35   1.0000      -3.126540       -85.0775 
  36   1.0000      -0.803226       -21.8569 
  37   1.0000      -0.714362       -19.4388 
  38   1.0000      -0.689492       -18.7620 
  39   1.0000      -0.689482       -18.7618 
  40   1.0000      -0.676368       -18.4049 
  41   1.0000      -0.674460       -18.3530 
  42   1.0000      -0.674446       -18.3526 
  43   1.0000      -0.669928       -18.2297 
  44   1.0000      -0.663619       -18.0580 
  45   1.0000      -0.663609       -18.0577 
  46   1.0000      -0.652817       -17.7640 
  47   1.0000      -0.652791       -17.7633 
  48   1.0000      -0.651094       -17.7172 
  49   1.0000      -0.645095       -17.5539 
  50   1.0000      -0.645090       -17.5538 
  51   1.0000      -0.636782       -17.3277 
  52   1.0000      -0.629928       -17.1412 
  53   1.0000      -0.629918       -17.1409 
  54   1.0000      -0.628512       -17.1027 
  55   1.0000      -0.623238       -16.9592 
  56   1.0000      -0.623210       -16.9584 
  57   0.0000      -0.522904       -14.2289 
  58   0.0000      -0.478100       -13.0098 
  59   0.0000      -0.478098       -13.0097 
  60   0.0000      -0.390010       -10.6127 
  61   0.0000      -0.360515        -9.8101 
  62   0.0000      -0.340742        -9.2721 
  63   0.0000      -0.340742        -9.2721 
  64   0.0000      -0.332812        -9.0563 
  65   0.0000      -0.332811        -9.0562 
  66   0.0000      -0.213409        -5.8072 
  67   0.0000      -0.202477        -5.5097 
  68   0.0000      -0.202477        -5.5097 
  69   0.0000      -0.194687        -5.2977 
  70   0.0000      -0.194687        -5.2977 
  71   0.0000      -0.192760        -5.2453 
  72   0.0000      -0.190878        -5.1941 
  73   0.0000      -0.161101        -4.3838 
  74   0.0000      -0.148737        -4.0473 
  75   0.0000      -0.137468        -3.7407 
  76   0.0000      -0.137467        -3.7407 
  77   0.0000      -0.135405        -3.6846 
  78   0.0000      -0.134914        -3.6712 
  79   0.0000      -0.134912        -3.6712 
  80   0.0000      -0.130540        -3.5522 
  81   0.0000      -0.130537        -3.5521 
  82   0.0000      -0.073334        -1.9955 
  83   0.0000      -0.072495        -1.9727 
  84   0.0000      -0.072492        -1.9726 
  85   0.0000      -0.065291        -1.7767 
  86   0.0000      -0.065291        -1.7767 
  87   0.0000      -0.064049        -1.7429 
  88   0.0000      -0.052689        -1.4338 
  89   0.0000      -0.039480        -1.0743 
  90   0.0000      -0.039478        -1.0743 
  91   0.0000      -0.029474        -0.8020 
  92   0.0000      -0.020415        -0.5555 
  93   0.0000      -0.020414        -0.5555 
  94   0.0000      -0.011977        -0.3259 
  95   0.0000      -0.011977        -0.3259 
  96   0.0000      -0.005744        -0.1563 
  97   0.0000       0.006464         0.1759 
  98   0.0000       0.023846         0.6489 
  99   0.0000       0.048551         1.3211 
 100   0.0000       0.048552         1.3212 
 101   0.0000       0.052849         1.4381 
 102   0.0000       0.052850         1.4381 
 103   0.0000       0.080259         2.1840 
 104   0.0000       0.112041         3.0488 
 105   0.0000       0.112048         3.0490 
 106   0.0000       0.113776         3.0960 
 107   0.0000       0.123658         3.3649 
 108   0.0000       0.123659         3.3649 
 109   0.0000       0.130036         3.5384 
 110   0.0000       0.138846         3.7782 
 111   0.0000       0.138847         3.7782 
 112   0.0000       0.274609         7.4725 
 113   0.0000       0.337040         9.1713 
 114   0.0000       0.346688         9.4339 
 115   0.0000       0.346701         9.4342 
 116   0.0000       0.363965         9.9040 
 117   0.0000       0.363971         9.9041 
 118   0.0000       0.371428        10.1071 
 119   0.0000       0.417818        11.3694 
 120   0.0000       0.417820        11.3695 
 121   0.0000       0.443960        12.0808 
 122   0.0000       0.447935        12.1889 
 123   0.0000       0.447938        12.1890 
 124   0.0000       0.489118        13.3096 
 125   0.0000       0.514194        13.9919 
 126   0.0000       0.514196        13.9920 
 127   0.0000       0.533027        14.5044 
 128   0.0000       0.544272        14.8104 
 129   0.0000       0.544280        14.8106 
 130   0.0000       0.564299        15.3553 
 131   0.0000       0.586868        15.9695 
 132   0.0000       0.586871        15.9696 
 133   0.0000       0.614113        16.7109 
 134   0.0000       0.622176        16.9303 
 135   0.0000       0.622178        16.9303 
 136   0.0000       0.658921        17.9301 
 137   0.0000       0.670969        18.2580 
 138   0.0000       0.670974        18.2581 
 139   0.0000       0.808050        21.9881 
 140   0.0000       0.808051        21.9882 
 141   0.0000       0.811474        22.0813 
 142   0.0000       0.832380        22.6502 
 143   0.0000       0.832398        22.6507 
 144   0.0000       0.858253        23.3543 
 145   0.0000       0.987067        26.8595 
 146   0.0000       0.987096        26.8602 
 147   0.0000       1.065835        29.0028 
 148   0.0000       2.333596        63.5004 
 149   0.0000       2.551171        69.4209 
 150   0.0000       2.551203        69.4218 
 151   0.0000       2.581431        70.2443 
 152   0.0000       2.586173        70.3734 
 153   0.0000       2.586194        70.3739 
 154   0.0000       2.612003        71.0762 
 155   0.0000       2.660151        72.3864 
 156   0.0000       2.660191        72.3875 
 157   0.0000       2.732388        74.3520 
 158   0.0000       2.732407        74.3526 
 159   0.0000       2.734791        74.4175 
 160   0.0000       2.737097        74.4802 
 161   0.0000       2.737106        74.4804 
 162   0.0000       2.782848        75.7252 
 163   0.0000       2.858852        77.7933 
 164   0.0000       2.861858        77.8751 
 165   0.0000       2.861871        77.8755 
 166   0.0000       2.926823        79.6429 
 167   0.0000       2.967381        80.7465 
 168   0.0000       2.970260        80.8249 
 169   0.0000       2.970275        80.8253 
 170   0.0000       2.987688        81.2991 
 171   0.0000       2.987705        81.2996 
 172   0.0000       2.987777        81.3016 
 173   0.0000       2.989183        81.3398 
 174   0.0000       2.989750        81.3552 
 175   0.0000       2.989778        81.3560 
 176   0.0000       2.994681        81.4894 
 177   0.0000       2.994696        81.4898 
 178   0.0000       3.007156        81.8289 
 179   0.0000       3.012168        81.9653 
 180   0.0000       3.012177        81.9655 
 181   0.0000       3.013746        82.0082 
 182   0.0000       3.033594        82.5483 
 183   0.0000       3.040292        82.7305 
 184   0.0000       3.040309        82.7310 
 185   0.0000       3.041510        82.7637 
 186   0.0000       3.049131        82.9711 
 187   0.0000       3.049131        82.9711 
 188   0.0000       3.050487        83.0080 
 189   0.0000       3.141215        85.4768 
 190   0.0000       3.175244        86.4028 
 191   0.0000       3.175254        86.4031 
 192   0.0000       3.236562        88.0713 
 193   0.0000       3.236571        88.0716 
 194   0.0000       3.248546        88.3974 
 195   0.0000       3.262296        88.7716 
 196   0.0000       3.262315        88.7721 
 197   0.0000       3.311863        90.1204 
 198   0.0000       3.336913        90.8020 
 199   0.0000       3.336951        90.8030 
 200   0.0000       3.352002        91.2126 
 201   0.0000       3.352003        91.2127 
 202   0.0000       3.363811        91.5339 
 203   0.0000       3.445519        93.7573 
 204   0.0000       3.473051        94.5065 
 205   0.0000       3.480345        94.7050 
 206   0.0000       3.480352        94.7052 
 207   0.0000       3.511855        95.5624 
 208   0.0000       3.511865        95.5627 
 209   0.0000       3.527396        95.9853 
 210   0.0000       3.527417        95.9859 
 211   0.0000       3.546873        96.5153 
 212   0.0000       3.627143        98.6996 
 213   0.0000       3.627167        98.7002 
 214   0.0000       3.651508        99.3626 
 215   0.0000       3.897243       106.0494 
 216   0.0000       4.128568       112.3441 
 217   0.0000       4.128615       112.3453 
 218   0.0000       4.337921       118.0408 
 219   0.0000       4.416805       120.1874 
 220   0.0000       4.416917       120.1904 
 221   0.0000      12.551304       341.5383 
 222   0.0000      12.551351       341.5396 
 223   0.0000      12.551361       341.5399 
 224   0.0000      12.551586       341.5460 
 225   0.0000      12.552502       341.5709 
 226   0.0000      12.552580       341.5731 
 227   0.0000      12.552976       341.5838 
 228   0.0000      12.553497       341.5980 
 229   0.0000      12.553704       341.6036 
 230   0.0000      12.553886       341.6086 
 231   0.0000      12.553930       341.6098 
 232   0.0000      12.554592       341.6278 
 233   0.0000      12.554610       341.6283 
 234   0.0000      12.554872       341.6354 
 235   0.0000      12.554880       341.6356 
 236   0.0000      12.555198       341.6443 
 237   0.0000      12.555397       341.6497 
 238   0.0000      12.555951       341.6648 
 239   0.0000      12.556878       341.6900 
 240   0.0000      12.557046       341.6946 
 241   0.0000      12.557110       341.6963 
 242   0.0000      12.557292       341.7013 
 243   0.0000      12.557468       341.7061 
 244   0.0000      12.557510       341.7072 
 245   0.0000      12.558901       341.7451 
 246   0.0000      12.558962       341.7467 
 247   0.0000      12.559151       341.7519 
 248   0.0000      12.580115       342.3223 
 249   0.0000      12.580782       342.3405 
 250   0.0000      12.580804       342.3411 
 251   0.0000      12.581134       342.3501 
 252   0.0000      12.581221       342.3524 
 253   0.0000      12.581551       342.3614 
 254   0.0000      12.582276       342.3811 
 255   0.0000      12.585202       342.4608 
 256   0.0000      12.585207       342.4609 
 257   0.0000      12.660987       344.5230 
 258   0.0000      12.661382       344.5337 
 259   0.0000      12.663005       344.5779 
 260   0.0000      12.663024       344.5784 
 261   0.0000      12.666521       344.6736 
 262   0.0000      12.666560       344.6746 
 263   0.0000      12.666578       344.6751 
 264   0.0000      12.667533       344.7011 
 265   0.0000      12.667534       344.7011 
 266   0.0000      12.671823       344.8178 
 267   0.0000      12.671847       344.8185 
 268   0.0000      12.677742       344.9789 
 269   0.0000      12.681349       345.0771 
 270   0.0000      12.681355       345.0772 
 271   0.0000      12.690301       345.3206 
 272   0.0000      12.690612       345.3291 
 273   0.0000      12.690619       345.3293 
 274   0.0000      12.690665       345.3305 
 275   0.0000      12.692195       345.3722 
 276   0.0000      12.722727       346.2030 
 277   0.0000      12.727379       346.3296 
 278   0.0000      12.727438       346.3312 
 279   0.0000      12.729963       346.3999 
 280   0.0000      12.742316       346.7360 
 281   0.0000      12.742334       346.7365 
 282   0.0000      12.825731       349.0059 
 283   0.0000      12.825745       349.0063 
 284   0.0000      12.910537       351.3136 

                    ********************************
                    * MULLIKEN POPULATION ANALYSIS *
                    ********************************

--------------------------------------------
MULLIKEN ATOMIC CHARGES AND SPIN POPULATIONS
--------------------------------------------
   0 Cu:    0.409261    0.081097
   1 Cu:    0.409065    0.081147
   2 Cu:    0.409064    0.081149
   3 Cu:    0.343763    0.484810
   4 H :    0.428846    0.271797
Sum of atomic charges         :    2.0000000
Sum of atomic spin populations:    1.0000000

-----------------------------------------------------
MULLIKEN REDUCED ORBITAL CHARGES AND SPIN POPULATIONS
-----------------------------------------------------
CHARGE
  0 Cus       :     6.563268  s :     6.563268
      pz      :     4.065142  p :    12.254366
      px      :     4.020798
      py      :     4.168427
      dz2     :     1.970152  d :     9.772775
      dxz     :     1.991281
      dyz     :     1.893350
      dx2y2   :     1.985784
      dxy     :     1.932210
      f0      :     0.000050  f :     0.000328
      f+1     :     0.000015
      f-1     :     0.000038
      f+2     :     0.000083
      f-2     :     0.000038
      f+3     :     0.000039
      f-3     :     0.000064
      g0      :     0.000000  g :     0.000002
      g+1     :     0.000000
      g-1     :     0.000000
      g+2     :     0.000000
      g-2     :     0.000000
      g+3     :     0.000000
      g-3     :     0.000000
      g+4     :     0.000000
      g-4     :     0.000000
  1 Cus       :     6.563399  s :     6.563399
      pz      :     4.065147  p :    12.254419
      px      :     4.131547
      py      :     4.057724
      dz2     :     1.970152  d :     9.772788
      dxz     :     1.917821
      dyz     :     1.966786
      dx2y2   :     1.945631
      dxy     :     1.972397
      f0      :     0.000050  f :     0.000328
      f+1     :     0.000032
      f-1     :     0.000021
      f+2     :     0.000049
      f-2     :     0.000072
      f+3     :     0.000039
      f-3     :     0.000064
      g0      :     0.000000  g :     0.000002
      g+1     :     0.000000
      g-1     :     0.000000
      g+2     :     0.000000
      g-2     :     0.000000
      g+3     :     0.000000
      g-3     :     0.000000
      g+4     :     0.000000
      g-4     :     0.000000
  2 Cus       :     6.563400  s :     6.563400
      pz      :     4.065147  p :    12.254419
      px      :     4.131548
      py      :     4.057725
      dz2     :     1.970152  d :     9.772788
      dxz     :     1.917821
      dyz     :     1.966786
      dx2y2   :     1.945631
      dxy     :     1.972397
      f0      :     0.000050  f :     0.000328
      f+1     :     0.000032
      f-1     :     0.000021
      f+2     :     0.000049
      f-2     :     0.000072
      f+3     :     0.000039
      f-3     :     0.000064
      g0      :     0.000000  g :     0.000002
      g+1     :     0.000000
      g-1     :     0.000000
      g+2     :     0.000000
      g-2     :     0.000000
      g+3     :     0.000000
      g-3     :     0.000000
      g+4     :     0.000000
      g-4     :     0.000000
  3 Cus       :     6.752258  s :     6.752258
      pz      :     4.070828  p :    12.106400
      px      :     4.017788
      py      :     4.017783
      dz2     :     1.964264  d :     9.797422
      dxz     :     1.927672
      dyz     :     1.927713
      dx2y2   :     1.988886
      dxy     :     1.988887
      f0      :     0.000043  f :     0.000157
      f+1     :     0.000028
      f-1     :     0.000028
      f+2     :     0.000024
      f-2     :     0.000024
      f+3     :     0.000005
      f-3     :     0.000005
      g0      :     0.000000  g :     0.000001
      g+1     :     0.000000
      g-1     :     0.000000
      g+2     :     0.000000
      g-2     :     0.000000
      g+3     :     0.000000
      g-3     :     0.000000
      g+4     :     0.000000
      g-4     :     0.000000
  4 H s       :     0.635948  s :     0.635948
      pz      :    -0.073264  p :    -0.067333
      px      :     0.002966
      py      :     0.002965
      dz2     :     0.000408  d :     0.002538
      dxz     :     0.000630
      dyz     :     0.000631
      dx2y2   :     0.000435
      dxy     :     0.000435

SPIN
  0 Cus       :    -0.018988  s :    -0.018988
      pz      :     0.037423  p :     0.027753
      px      :    -0.000137
      py      :    -0.009532
      dz2     :    -0.002119  d :     0.072304
      dxz     :    -0.000743
      dyz     :     0.072167
      dx2y2   :     0.003137
      dxy     :    -0.000138
      f0      :     0.000003  f :     0.000027
      f+1     :     0.000000
      f-1     :    -0.000000
      f+2     :     0.000023
      f-2     :    -0.000000
      f+3     :    -0.000000
      f-3     :     0.000002
      g0      :     0.000000  g :     0.000000
      g+1     :     0.000000
      g-1     :    -0.000000
      g+2     :     0.000000
      g-2     :    -0.000000
      g+3     :     0.000000
      g-3     :     0.000000
      g+4     :     0.000000
      g-4     :     0.000000
  1 Cus       :    -0.018978  s :    -0.018978
      pz      :     0.037426  p :     0.027759
      px      :    -0.007182
      py      :    -0.002485
      dz2     :    -0.002114  d :     0.072339
      dxz     :     0.053957
      dyz     :     0.017493
      dx2y2   :     0.000682
      dxy     :     0.002322
      f0      :     0.000003  f :     0.000027
      f+1     :    -0.000000
      f-1     :     0.000000
      f+2     :     0.000005
      f-2     :     0.000017
      f+3     :    -0.000000
      f-3     :     0.000002
      g0      :     0.000000  g :     0.000000
      g+1     :    -0.000000
      g-1     :     0.000000
      g+2     :    -0.000000
      g-2     :     0.000000
      g+3     :     0.000000
      g-3     :     0.000000
      g+4     :     0.000000
      g-4     :     0.000000
  2 Cus       :    -0.018977  s :    -0.018977
      pz      :     0.037425  p :     0.027759
      px      :    -0.007182
      py      :    -0.002485
      dz2     :    -0.002114  d :     0.072339
      dxz     :     0.053957
      dyz     :     0.017493
      dx2y2   :     0.000682
      dxy     :     0.002322
      f0      :     0.000003  f :     0.000027
      f+1     :    -0.000000
      f-1     :     0.000000
      f+2     :     0.000005
      f-2     :     0.000017
      f+3     :    -0.000000
      f-3     :     0.000002
      g0      :     0.000000  g :     0.000000
      g+1     :    -0.000000
      g-1     :     0.000000
      g+2     :    -0.000000
      g-2     :     0.000000
      g+3     :     0.000000
      g-3     :     0.000000
      g+4     :     0.000000
      g-4     :     0.000000
  3 Cus       :     0.476807  s :     0.476807
      pz      :     0.022527  p :     0.029506
      px      :     0.003489
      py      :     0.003489
      dz2     :    -0.006193  d :    -0.021511
      dxz     :    -0.006518
      dyz     :    -0.006511
      dx2y2   :    -0.001144
      dxy     :    -0.001144
      f0      :     0.000006  f :     0.000007
      f+1     :    -0.000000
      f-1     :    -0.000000
      f+2     :     0.000000
      f-2     :     0.000000
      f+3     :     0.000000
      f-3     :     0.000001
      g0      :     0.000000  g :    -0.000000
      g+1     :    -0.000000
      g-1     :    -0.000000
      g+2     :    -0.000000
      g-2     :    -0.000000
      g+3     :     0.000000
      g-3     :     0.000000
      g+4     :    -0.000000
      g-4     :     0.000000
  4 H s       :     0.288696  s :     0.288696
      pz      :    -0.020564  p :    -0.016892
      px      :     0.001836
      py      :     0.001837
      dz2     :     0.000044  d :    -0.000007
      dxz     :    -0.000028
      dyz     :    -0.000028
      dx2y2   :     0.000002
      dxy     :     0.000002


                     *******************************
                     * LOEWDIN POPULATION ANALYSIS *
                     *******************************

-------------------------------------------
LOEWDIN ATOMIC CHARGES AND SPIN POPULATIONS
-------------------------------------------
   0 Cu:    0.491112    0.235260
   1 Cu:    0.491111    0.235290
   2 Cu:    0.491112    0.235290
   3 Cu:    0.542662    0.159811
   4 H :   -0.015997    0.134349

----------------------------------------------------
LOEWDIN REDUCED ORBITAL CHARGES AND SPIN POPULATIONS
----------------------------------------------------
CHARGE
  0 Cus       :     6.210039  s :     6.210039
      pz      :     4.181123  p :    12.395949
      px      :     4.035253
      py      :     4.179573
      dz2     :     1.985911  d :     9.901984
      dxz     :     1.990756
      dyz     :     1.966598
      dx2y2   :     1.996896
      dxy     :     1.961823
      f0      :     0.000104  f :     0.000913
      f+1     :     0.000039
      f-1     :     0.000135
      f+2     :     0.000285
      f-2     :     0.000063
      f+3     :     0.000148
      f-3     :     0.000139
      g0      :     0.000000  g :     0.000003
      g+1     :     0.000000
      g-1     :     0.000000
      g+2     :     0.000000
      g-2     :     0.000000
      g+3     :     0.000000
      g-3     :     0.000001
      g+4     :     0.000000
      g-4     :     0.000000
  1 Cus       :     6.210054  s :     6.210054
      pz      :     4.181119  p :    12.395945
      px      :     4.143493
      py      :     4.071333
      dz2     :     1.985910  d :     9.901974
      dxz     :     1.972621
      dyz     :     1.984705
      dx2y2   :     1.970616
      dxy     :     1.988123
      f0      :     0.000104  f :     0.000913
      f+1     :     0.000111
      f-1     :     0.000063
      f+2     :     0.000118
      f-2     :     0.000229
      f+3     :     0.000148
      f-3     :     0.000140
      g0      :     0.000000  g :     0.000003
      g+1     :     0.000000
      g-1     :     0.000000
      g+2     :     0.000000
      g-2     :     0.000000
      g+3     :     0.000000
      g-3     :     0.000001
      g+4     :     0.000000
      g-4     :     0.000000
  2 Cus       :     6.210053  s :     6.210053
      pz      :     4.181119  p :    12.395945
      px      :     4.143493
      py      :     4.071333
      dz2     :     1.985910  d :     9.901974
      dxz     :     1.972621
      dyz     :     1.984705
      dx2y2   :     1.970616
      dxy     :     1.988123
      f0      :     0.000104  f :     0.000913
      f+1     :     0.000111
      f-1     :     0.000063
      f+2     :     0.000118
      f-2     :     0.000229
      f+3     :     0.000148
      f-3     :     0.000140
      g0      :     0.000000  g :     0.000003
      g+1     :     0.000000
      g-1     :     0.000000
      g+2     :     0.000000
      g-2     :     0.000000
      g+3     :     0.000000
      g-3     :     0.000001
      g+4     :     0.000000
      g-4     :     0.000000
  3 Cus       :     6.332340  s :     6.332340
      pz      :     4.156671  p :    12.211825
      px      :     4.027579
      py      :     4.027575
      dz2     :     2.020087  d :     9.912756
      dxz     :     1.953349
      dyz     :     1.953389
      dx2y2   :     1.992965
      dxy     :     1.992966
      f0      :     0.000081  f :     0.000416
      f+1     :     0.000103
      f-1     :     0.000103
      f+2     :     0.000055
      f-2     :     0.000055
      f+3     :     0.000009
      f-3     :     0.000008
      g0      :     0.000000  g :     0.000001
      g+1     :     0.000000
      g-1     :     0.000000
      g+2     :     0.000000
      g-2     :     0.000000
      g+3     :     0.000000
      g-3     :     0.000000
      g+4     :     0.000000
      g-4     :     0.000000
  4 H s       :     0.745508  s :     0.745508
      pz      :     0.119141  p :     0.255034
      px      :     0.067952
      py      :     0.067941
      dz2     :     0.002607  d :     0.015455
      dxz     :     0.003900
      dyz     :     0.003900
      dx2y2   :     0.002524
      dxy     :     0.002524

SPIN
  0 Cus       :     0.004486  s :     0.004486
      pz      :     0.115833  p :     0.118794
      px      :     0.000695
      py      :     0.002267
      dz2     :    -0.000248  d :     0.111863
      dxz     :    -0.000404
      dyz     :     0.107497
      dx2y2   :     0.004359
      dxy     :     0.000660
      f0      :     0.000007  f :     0.000117
      f+1     :     0.000000
      f-1     :     0.000006
      f+2     :     0.000092
      f-2     :     0.000000
      f+3     :    -0.000000
      f-3     :     0.000011
      g0      :     0.000000  g :     0.000000
      g+1     :     0.000000
      g-1     :    -0.000000
      g+2     :     0.000000
      g-2     :    -0.000000
      g+3     :     0.000000
      g-3     :     0.000000
      g+4     :     0.000000
      g-4     :     0.000000
  1 Cus       :     0.004486  s :     0.004486
      pz      :     0.115831  p :     0.118792
      px      :     0.001874
      py      :     0.001087
      dz2     :    -0.000245  d :     0.111894
      dxz     :     0.080538
      dyz     :     0.026580
      dx2y2   :     0.001585
      dxy     :     0.003437
      f0      :     0.000007  f :     0.000117
      f+1     :     0.000005
      f-1     :     0.000002
      f+2     :     0.000023
      f-2     :     0.000069
      f+3     :    -0.000000
      f-3     :     0.000011
      g0      :     0.000000  g :     0.000000
      g+1     :    -0.000000
      g-1     :    -0.000000
      g+2     :    -0.000000
      g-2     :     0.000000
      g+3     :     0.000000
      g-3     :     0.000000
      g+4     :     0.000000
      g-4     :     0.000000
  2 Cus       :     0.004486  s :     0.004486
      pz      :     0.115831  p :     0.118792
      px      :     0.001874
      py      :     0.001087
      dz2     :    -0.000245  d :     0.111894
      dxz     :     0.080538
      dyz     :     0.026580
      dx2y2   :     0.001585
      dxy     :     0.003437
      f0      :     0.000007  f :     0.000117
      f+1     :     0.000005
      f-1     :     0.000002
      f+2     :     0.000023
      f-2     :     0.000069
      f+3     :    -0.000000
      f-3     :     0.000011
      g0      :     0.000000  g :     0.000000
      g+1     :    -0.000000
      g-1     :    -0.000000
      g+2     :    -0.000000
      g-2     :     0.000000
      g+3     :     0.000000
      g-3     :     0.000000
      g+4     :     0.000000
      g-4     :     0.000000
  3 Cus       :     0.167260  s :     0.167260
      pz      :    -0.001886  p :     0.003745
      px      :     0.002816
      py      :     0.002815
      dz2     :     0.004116  d :    -0.011199
      dxz     :    -0.006948
      dyz     :    -0.006941
      dx2y2   :    -0.000713
      dxy     :    -0.000713
      f0      :     0.000010  f :     0.000005
      f+1     :    -0.000003
      f-1     :    -0.000003
      f+2     :     0.000000
      f-2     :     0.000000
      f+3     :     0.000000
      f-3     :     0.000001
      g0      :     0.000000  g :    -0.000000
      g+1     :    -0.000000
      g-1     :    -0.000000
      g+2     :    -0.000000
      g-2     :    -0.000000
      g+3     :     0.000000
      g-3     :    -0.000000
      g+4     :    -0.000000
      g-4     :     0.000000
  4 H s       :     0.120129  s :     0.120129
      pz      :     0.013304  p :     0.014292
      px      :     0.000495
      py      :     0.000494
      dz2     :     0.000061  d :    -0.000072
      dxz     :    -0.000062
      dyz     :    -0.000062
      dx2y2   :    -0.000004
      dxy     :    -0.000004


                      *****************************
                      * MAYER POPULATION ANALYSIS *
                      *****************************

  NA   - Mulliken gross atomic population
  ZA   - Total nuclear charge
  QA   - Mulliken gross atomic charge
  VA   - Mayer's total valence
  BVA  - Mayer's bonded valence
  FA   - Mayer's free valence

  ATOM       NA         ZA         QA         VA         BVA        FA
  0 Cu    28.5907    29.0000     0.4093     1.5056     1.4830     0.0226
  1 Cu    28.5909    29.0000     0.4091     1.5057     1.4831     0.0226
  2 Cu    28.5909    29.0000     0.4091     1.5057     1.4831     0.0226
  3 Cu    28.6562    29.0000     0.3438     1.3136     1.0751     0.2385
  4 H      0.5712     1.0000     0.4288     0.3966     0.3265     0.0701

  Mayer bond orders larger than 0.100000
B(  0-Cu,  1-Cu) :   0.5308 B(  0-Cu,  2-Cu) :   0.5308 B(  0-Cu,  3-Cu) :   0.3354 
B(  1-Cu,  2-Cu) :   0.5309 B(  1-Cu,  3-Cu) :   0.3355 B(  2-Cu,  3-Cu) :   0.3355 


-------
TIMINGS
-------

Total SCF time: 0 days 0 hours 0 min 18 sec 

Total time                  ....      18.068 sec
Sum of individual times     ....      17.746 sec  ( 98.2%)

Fock matrix formation       ....      16.767 sec  ( 92.8%)
  XC integration            ....       1.653 sec  (  9.9% of F)
    Basis function eval.    ....       0.085 sec  (  5.1% of XC)
    Density eval.           ....       0.304 sec  ( 18.4% of XC)
    XC-Functional eval.     ....       0.044 sec  (  2.7% of XC)
    XC-Potential eval.      ....       0.636 sec  ( 38.5% of XC)
Diagonalization             ....       0.341 sec  (  1.9%)
Density matrix formation    ....       0.030 sec  (  0.2%)
Population analysis         ....       0.026 sec  (  0.1%)
Initial guess               ....       0.127 sec  (  0.7%)
Orbital Transformation      ....       0.000 sec  (  0.0%)
Orbital Orthonormalization  ....       0.000 sec  (  0.0%)
DIIS solution               ....       0.129 sec  (  0.7%)
Grid generation             ....       0.327 sec  (  1.8%)


-------------------------------------------------------------------------------
                          DFT DISPERSION CORRECTION                            
                                                                               
                              DFTD3 V3.1  Rev 1                                
                          USING Becke-Johnson damping                          
-------------------------------------------------------------------------------
The TPSSH functional is recognized
Active option DFTDOPT                   ...         4   

molecular C6(AA) [au] = 2980.231818 


            DFT-D V3
 parameters
 s6 scaling factor         :     1.0000 
 a1 scaling factor         :     0.4529 
 s8 scaling factor         :     2.2382 
 a2 scaling factor         :     4.6550 
 ad hoc parameters k1-k3   :    16.0000     1.3333    -4.0000 

 Edisp/kcal,au: -5.805777638730  -0.009252094605 
 E6   /kcal   :  -1.805579548 
 E8   /kcal   :  -4.000198090 
 % E8         :  68.900297932 

-------------------------   ----------------
Dispersion correction           -0.009252095
-------------------------   ----------------


-------------------------   --------------------
FINAL SINGLE POINT ENERGY     -6562.093396805469
-------------------------   --------------------


                            ***************************************
                            *     ORCA property calculations      *
                            ***************************************

                                    ---------------------
                                    Active property flags
                                    ---------------------
   (+) Dipole Moment


------------------------------------------------------------------------------
                       ORCA ELECTRIC PROPERTIES CALCULATION
------------------------------------------------------------------------------

Dipole Moment Calculation                       ... on
Quadrupole Moment Calculation                   ... off
Polarizability Calculation                      ... off
GBWName                                         ... Cu04C2_H_F.gbw
Electron density file                           ... Cu04C2_H_F.scfp
The origin for moment calculation is the CENTER OF MASS  = ( 0.000000,  0.000000  0.013733)

-------------
DIPOLE MOMENT
-------------
                                X             Y             Z
Electronic contribution:     -0.00000      -0.00002       1.52945
Nuclear contribution   :      0.00000       0.00000      -1.60670
                        -----------------------------------------
Total Dipole Moment    :     -0.00000      -0.00002      -0.07725
                        -----------------------------------------
Magnitude (a.u.)       :      0.07725
Magnitude (Debye)      :      0.19636



--------------------
Rotational spectrum 
--------------------
 
Rotational constants in cm-1:     0.045915     0.042882     0.042882 
Rotational constants in MHz :  1376.483459  1285.559854  1285.559421 

 Dipole components along the rotational axes: 
x,y,z [a.u.] :    -0.077252    -0.000019    -0.000000 
x,y,z [Debye]:    -0.196359    -0.000049    -0.000000 

 

Timings for individual modules:

Sum of individual times         ...       19.226 sec (=   0.320 min)
GTO integral calculation        ...        0.802 sec (=   0.013 min)   4.2 %
SCF iterations                  ...       18.424 sec (=   0.307 min)  95.8 %
                             ****ORCA TERMINATED NORMALLY****
TOTAL RUN TIME: 0 days 0 hours 0 minutes 19 seconds 729 msec
