
                                 *****************
                                 * O   R   C   A *
                                 *****************

           --- An Ab Initio, DFT and Semiempirical electronic structure package ---

                  #######################################################
                  #                        -***-                        #
                  #          Department of theory and spectroscopy      #
                  #               Directorship: Frank Neese             #
                  #        Max Planck Institute fuer Kohlenforschung    #
                  #                Kaiser Wilhelm Platz 1               #
                  #                 D-45470 Muelheim/Ruhr               #
                  #                      Germany                        #
                  #                                                     #
                  #                  All rights reserved                #
                  #                        -***-                        #
                  #######################################################


                         Program Version 4.2.0 -  RELEASE  -


 With contributions from (in alphabetic order):
   Daniel Aravena         : Magnetic Suceptibility
   Michael Atanasov       : Ab Initio Ligand Field Theory (pilot matlab implementation)
   Alexander A. Auer      : GIAO ZORA, VPT2
   Ute Becker             : Parallelization
   Giovanni Bistoni       : ED, misc. LED, open-shell LED, HFLED
   Martin Brehm           : Molecular dynamics
   Dmytro Bykov           : SCF Hessian
   Vijay G. Chilkuri      : MRCI spin determinant printing, contributions to CSF-ICE
   Dipayan Datta          : RHF DLPNO-CCSD density
   Achintya Kumar Dutta   : EOM-CC, STEOM-CC
   Dmitry Ganyushin       : Spin-Orbit,Spin-Spin,Magnetic field MRCI
   Miquel Garcia          : C-PCM Hessian, Gaussian charge scheme
   Yang Guo               : DLPNO-NEVPT2, CIM, IAO-localization
   Andreas Hansen         : Spin unrestricted coupled pair/coupled cluster methods
   Benjamin Helmich-Paris : CASSCF linear response (MC-RPA)
   Lee Huntington         : MR-EOM, pCC
   Robert Izsak           : Overlap fitted RIJCOSX, COSX-SCS-MP3, EOM
   Christian Kollmar      : KDIIS, OOCD, Brueckner-CCSD(T), CCSD density
   Simone Kossmann        : Meta GGA functionals, TD-DFT gradient, OOMP2, MP2 Hessian
   Martin Krupicka        : AUTO-CI
   Lucas Lang             : DCDCAS
   Dagmar Lenk            : GEPOL surface, SMD
   Dimitrios Liakos       : Extrapolation schemes; Compound Job, initial MDCI parallelization
   Dimitrios Manganas     : Further ROCIS development; embedding schemes
   Dimitrios Pantazis     : SARC Basis sets
   Taras Petrenko         : DFT Hessian,TD-DFT gradient, ASA, ECA, R-Raman, ABS, FL, XAS/XES, NRVS
   Peter Pinski           : DLPNO-MP2, DLPNO-MP2 Gradient
   Christoph Reimann      : Effective Core Potentials
   Marius Retegan         : Local ZFS, SOC
   Christoph Riplinger    : Optimizer, TS searches, QM/MM, DLPNO-CCSD(T), (RO)-DLPNO pert. Triples
   Tobias Risthaus        : Range-separated hybrids, TD-DFT gradient, RPA, STAB
   Michael Roemelt        : Original ROCIS implementation
   Masaaki Saitow         : Open-shell DLPNO-CCSD energy and density
   Barbara Sandhoefer     : DKH picture change effects
   Avijit Sen             : IP-ROCIS
   Kantharuban Sivalingam : CASSCF convergence, NEVPT2, FIC-MRCI
   Bernardo de Souza      : ESD, SOC TD-DFT
   Georgi Stoychev        : AutoAux, RI-MP2 NMR
   Willem Van den Heuvel  : Paramagnetic NMR
   Boris Wezisla          : Elementary symmetry handling
   Frank Wennmohs         : Technical directorship


 We gratefully acknowledge several colleagues who have allowed us to
 interface, adapt or use parts of their codes:
   Stefan Grimme, W. Hujo, H. Kruse,             : VdW corrections, initial TS optimization,
                  C. Bannwarth                     DFT functionals, gCP, sTDA/sTD-DF
   Ed Valeev, F. Pavosevic, A. Kumar             : LibInt (2-el integral package), F12 methods
   Garnet Chan, S. Sharma, J. Yang, R. Olivares  : DMRG
   Ulf Ekstrom                                   : XCFun DFT Library
   Mihaly Kallay                                 : mrcc  (arbitrary order and MRCC methods)
   Andreas Klamt, Michael Diedenhofen            : otool_cosmo (COSMO solvation model)
   Jiri Pittner, Ondrej Demel                    : Mk-CCSD
   Frank Weinhold                                : gennbo (NPA and NBO analysis)
   Christopher J. Cramer and Donald G. Truhlar   : smd solvation model
   Lars Goerigk                                  : TD-DFT with DH, B97 family of functionals
   V. Asgeirsson, H. Jonsson                     : NEB implementation
   FAccTs GmbH                                   : IRC, NEB, NEB-TS, Multilevel, MM, QM/MM, CI optimization
   S Lehtola, MJT Oliveira, MAL Marques          : LibXC Library


 Your calculation uses the libint2 library for the computation of 2-el integrals
 For citations please refer to: http://libint.valeyev.net

 Your ORCA version has been built with support for libXC version: 4.2.3
 For citations please refer to: https://tddft.org/programs/libxc/

 This ORCA versions uses:
   CBLAS   interface :  Fast vector & matrix operations
   LAPACKE interface :  Fast linear algebra routines
   SCALAPACK package :  Parallel linear algebra routines


Your calculation utilizes the atom-pairwise dispersion correction
with the zero-damping scheme (D30)
Cite in your paper:
S.Grimme, J.Antony, S.Ehrlich and H.Krieg, J.Chem.Phys., 132, (2010), 154104 
   

XCFun DFT library Copyright 2009-2010 Ulf Ekstrom and contributors.
See http://admol.org/xcfun for more information. This is free soft-
ware; see the source code for copying conditions. There is ABSOLUTELY
NO WARRANTY; not even for MERCHANTABILITY or FITNESS FOR A PARTICULAR
PURPOSE. For details see the documentation. Scientific users of this 
library should cite U. Ekstrom, L. Visscher, R. Bast, A. J. Thorvald-
sen and K. Ruud; J.Chem.Theor.Comp. 2010, DOI: 10.1021/ct100117s
XCFun Version 0.99 
----- Orbital basis set information -----
Your calculation utilizes the basis: def2-TZVPPD
   F. Weigend and R. Ahlrichs, Phys. Chem. Chem. Phys. 7, 3297 (2005).
   D. Rappoport and F. Furche, J. Chem. Phys. 133 134105 (2010).

----- AuxJK basis set information -----
Your calculation utilizes the auxiliary basis: def2/JK
   H-Ba, Hf-Rn: F. Weigend, J. Comput. Chem. 29, 167 (2008).

cite the ECPs for Ag [Def2-ECP] as follows:
Ce-Yb(ecp-28): M. Dolg, H. Stoll, H.Preuss, J. Chem. Phys., 1989, 90, 1730-1734.
Y-Cd(ecp-28), Hf-Hg(ecp-46): D. Andrae,U. Haeussermann, M. Dolg, H. Stoll, H. Preuss, Theor. Chim. Acta, 1990, 77, 123-141.
In-Sb(ecp-28), Tl-Bi(ecp-46): B. Metz, H. Stoll, M. Dolg, J. Chem. Phys., 2000, 113, 2563-2569.
Te-Xe(ecp-28), Po-Rn(ecp-46): K. A. Peterson, D. Figgen, E. Goll, H. Stoll, M. Dolg, J. Chem. Phys., 2003, 119, 11113-11123.
Rb(ecp-28), Cs(ecp-46): T. Leininger, A. Nicklass, W. Kuechle, H. Stoll, M. Dolg, A. Bergner, Chem. Phys. Lett., 1996, 255, 274-280.
Sr(ecp-28), Ba(ecp-46): M. Kaupp, P. V. Schleyer, H. Stoll and H. Preuss, J. Chem. Phys., 1991, 94, 1360-1366.
La(ecp-46): M. Dolg, H. Stoll, A. Savin, H. Preuss, Theor. Chim. Acta, 1989, 75, 173-194.
Lu(ecp-28): X. Cao, M. Dolg, J. Chem. Phys., 2001, 115, 7348-7355.

ECP parameters for Ag [Def2-ECP] have been obtained from:
TURBOMOLE (7.0.2)

================================================================================
                                        WARNINGS
                       Please study these warnings very carefully!
================================================================================


WARNING: Geometry Optimization
  ===> : Switching off AutoStart
         For restart on a previous wavefunction, please use MOREAD

WARNING: Minnesota functionals are quite sensitive to the integration grid.
         see SE Wheeler, KN Houk, JCTC 2010, 6, 395,
             N Mardirossian, M Head-Gordon, JCTC 2016, 12, 4303.
         Grid6 seems to be a minimum grid for reliable results with these functionals!
  ===> : Please increase the integration grid!


INFO   : the flag for use of LIBINT has been found!

================================================================================
                                       INPUT FILE
================================================================================
NAME = Ag01N0_F.in
|  1> #
|  2> # Ag01N0_F M06-D3/Def2-TZVPPD
|  3> #
|  4> ! m06 d3zero def2-tzvppd def2/jk grid4 nofinalgrid opt xyzfile numfreq
|  5> 
|  6> *xyz 0 1
|  7> Ag       0.000000    0.000000    0.317712 
|  8> F        0.000000    0.000000   -1.659163 
|  9> *
| 10> 
| 11> %maxcore 5000
| 12> 
| 13> %pal
| 14> nprocs = 24
| 15> end
| 16> 
| 17> 
| 18>                          ****END OF INPUT****
================================================================================

                       *****************************
                       * Geometry Optimization Run *
                       *****************************

Geometry optimization settings:
Update method            Update   .... BFGS
Choice of coordinates    CoordSys .... Z-matrix Internals
Initial Hessian          InHess   .... Almoef's Model

Convergence Tolerances:
Energy Change            TolE     ....  5.0000e-06 Eh
Max. Gradient            TolMAXG  ....  3.0000e-04 Eh/bohr
RMS Gradient             TolRMSG  ....  1.0000e-04 Eh/bohr
Max. Displacement        TolMAXD  ....  4.0000e-03 bohr
RMS Displacement         TolRMSD  ....  2.0000e-03 bohr
Strict Convergence                ....  False
------------------------------------------------------------------------------
                        ORCA OPTIMIZATION COORDINATE SETUP
------------------------------------------------------------------------------

The optimization will be done in new redundant internal coordinates
Making redundant internal coordinates   ...  (new redundants) done
Evaluating the initial hessian          ...  (Almloef) done
Evaluating the coordinates              ...  done
Calculating the B-matrix                .... done
Calculating the G-matrix                .... done
Diagonalizing the G-matrix              .... done
The first mode is                       ....    0
The number of degrees of freedom        ....    1

    -----------------------------------------------------------------
                    Redundant Internal Coordinates


    -----------------------------------------------------------------
         Definition                    Initial Value    Approx d2E/dq
    -----------------------------------------------------------------
      1. B(F   1,Ag  0)                  1.9769         0.609214   
    -----------------------------------------------------------------

Number of atoms                         .... 2
Number of degrees of freedom            .... 1

         *************************************************************
         *                GEOMETRY OPTIMIZATION CYCLE   1            *
         *************************************************************
---------------------------------
CARTESIAN COORDINATES (ANGSTROEM)
---------------------------------
  Ag     0.000000    0.000000    0.317712
  F      0.000000    0.000000   -1.659163

----------------------------
CARTESIAN COORDINATES (A.U.)
----------------------------
  NO LB      ZA    FRAG     MASS         X           Y           Z
   0 Ag   19.0000*   0   107.870    0.000000    0.000000    0.600389
   1 F     9.0000    0    18.998    0.000000    0.000000   -3.135364
* core charge reduced due to ECP

--------------------------------
INTERNAL COORDINATES (ANGSTROEM)
--------------------------------
 Ag     0   0   0     0.000000000000     0.00000000     0.00000000
 F      1   0   0     1.976875000000     0.00000000     0.00000000

---------------------------
INTERNAL COORDINATES (A.U.)
---------------------------
 Ag     0   0   0     0.000000000000     0.00000000     0.00000000
 F      1   0   0     3.735752350996     0.00000000     0.00000000

---------------------
BASIS SET INFORMATION
---------------------
There are 2 groups of distinct atoms

 Group   1 Type Ag  : 7s7p6d2f1g contracted to 6s4p3d2f1g pattern {211111/4111/411/11/1}
 Group   2 Type F   : 12s7p3d1f contracted to 6s4p3d1f pattern {621111/4111/111/1}

Atom   0Ag   basis set group =>   1
Atom   1F    basis set group =>   2
----------------------------------
AUXILIARY/JK BASIS SET INFORMATION
----------------------------------
There are 2 groups of distinct atoms

 Group   1 Type Ag  : 13s12p10d9f6g3h2i contracted to 11s10p9d8f6g3h2i pattern {31111111111/3111111111/211111111/21111111/111111/111/11}
 Group   2 Type F   : 14s10p6d2f1g contracted to 10s8p4d2f1g pattern {5111111111/31111111/3111/11/1}

Atom   0Ag   basis set group =>   1
Atom   1F    basis set group =>   2
-------------------------
ECP PARAMETER INFORMATION
-------------------------

 Group 1, Type Ag ECP Def2-ECP (replacing 28 core electrons, lmax=3)

Atom   0Ag   ECP group =>   1



           ************************************************************
           *        Program running with 24 parallel MPI-processes    *
           *              working on a common directory               *
           ************************************************************
------------------------------------------------------------------------------
                           ORCA GTO INTEGRAL CALCULATION
------------------------------------------------------------------------------

                         BASIS SET STATISTICS AND STARTUP INFO

 # of primitive gaussian shells          ...   46
 # of primitive gaussian functions       ...  136
 # of contracted shells                  ...   30
 # of contracted basis functions         ...   96
 Highest angular momentum                ...    4
 Maximum contraction depth               ...    6
 Integral package used                   ... LIBINT
 Integral threshhold            Thresh   ...  2.500e-11
 Primitive cut-off              TCut     ...  2.500e-12


------------------------------ INTEGRAL EVALUATION ----------------------------


 * One electron integrals 

   ECP integrals                         ... done
 Pre-screening matrix                    ... done
 Shell pair data                         ... done (   0.000 sec)



           ************************************************************
           *        Program running with 24 parallel MPI-processes    *
           *              working on a common directory               *
           ************************************************************
-------------------------------------------------------------------------------
                                 ORCA SCF
-------------------------------------------------------------------------------

------------
SCF SETTINGS
------------
Hamiltonian:
 Density Functional     Method          .... DFT(GTOs)
 Exchange Functional    Exchange        .... M06
 Correlation Functional Correlation     .... M06
 Gradients option       PostSCFGGA      .... off
 Hybrid DFT is turned on
   Fraction HF Exchange ScalHFX         ....  0.270000
   Scaling of DF-GGA-X  ScalDFX         ....  0.730000
   Scaling of DF-GGA-C  ScalDFC         ....  1.000000
   Scaling of DF-LDA-C  ScalLDAC        ....  1.000000
   Perturbative correction              ....  0.000000
   Density functional embedding theory  .... OFF


General Settings:
 Integral files         IntName         .... Ag01N0_F
 Hartree-Fock type      HFTyp           .... RHF
 Total Charge           Charge          ....    0
 Multiplicity           Mult            ....    1
 Number of Electrons    NEL             ....   28
 Basis Dimension        Dim             ....   96
 Nuclear Repulsion      ENuc            ....     45.7739121691 Eh

Convergence Acceleration:
 DIIS                   CNVDIIS         .... on
   Start iteration      DIISMaxIt       ....    12
   Startup error        DIISStart       ....  0.200000
   # of expansion vecs  DIISMaxEq       ....     5
   Bias factor          DIISBfac        ....   1.050
   Max. coefficient     DIISMaxC        ....  10.000
 Newton-Raphson         CNVNR           .... off
 SOSCF                  CNVSOSCF        .... off
 Level Shifting         CNVShift        .... on
   Level shift para.    LevelShift      ....    0.2500
   Turn off err/grad.   ShiftErr        ....    0.0010
 Zerner damping         CNVZerner       .... off
 Static damping         CNVDamp         .... on
   Fraction old density DampFac         ....    0.7000
   Max. Damping (<1)    DampMax         ....    0.9800
   Min. Damping (>=0)   DampMin         ....    0.0000
   Turn off err/grad.   DampErr         ....    0.1000
 Fernandez-Rico         CNVRico         .... off

SCF Procedure:
 Maximum # iterations   MaxIter         ....   125
 SCF integral mode      SCFMode         .... Direct
   Integral package                     .... LIBINT
 Reset frequency        DirectResetFreq ....    20
 Integral Threshold     Thresh          ....  2.500e-11 Eh
 Primitive CutOff       TCut            ....  2.500e-12 Eh

Convergence Tolerance:
 Convergence Check Mode ConvCheckMode   .... Total+1el-Energy
 Convergence forced     ConvForced      .... 0
 Energy Change          TolE            ....  1.000e-08 Eh
 1-El. energy change                    ....  1.000e-05 Eh
 DIIS Error             TolErr          ....  5.000e-07


Diagonalization of the overlap matrix:
Smallest eigenvalue                        ... 3.392e-03
Time for diagonalization                   ...    0.022 sec
Threshold for overlap eigenvalues          ... 1.000e-08
Number of eigenvalues below threshold      ... 0
Time for construction of square roots      ...    0.001 sec
Total time needed                          ...    0.023 sec

-------------------
DFT GRID GENERATION
-------------------

General Integration Accuracy     IntAcc      ...  4.670
Radial Grid Type                 RadialGrid  ... Gauss-Chebyshev
Angular Grid (max. acc.)         AngularGrid ... Lebedev-302
Angular grid pruning method      GridPruning ... 3 (G Style)
Weight generation scheme         WeightScheme... Becke
Basis function cutoff            BFCut       ...    1.0000e-11
Integration weight cutoff        WCut        ...    1.0000e-14
Grids for H and He will be reduced by one unit

# of grid points (after initial pruning)     ...  16930 (   0.0 sec)
# of grid points (after weights+screening)   ...  16875 (   0.0 sec)
nearest neighbour list constructed           ...    0.0 sec
Grid point re-assignment to atoms done       ...    0.0 sec
Grid point division into batches done        ...    0.1 sec
Reduced shell lists constructed in    0.1 sec

Total number of grid points                  ...    16875
Total number of batches                      ...      265
Average number of points per batch           ...       63
Average number of grid points per atom       ...     8438
Average number of shells per batch           ...     3.31 (11.03%)
Average number of basis functions per batch  ...     7.62 ( 7.93%)
Average number of large shells per batch     ...     2.08 (62.79%)
Average number of large basis fcns per batch ...     4.38 (57.58%)
Maximum spatial batch extension              ...  36.77, 40.43, 23.83 au
Average spatial batch extension              ...   1.19,  1.22,  0.86 au

Time for grid setup =    0.151 sec

------------------------------
INITIAL GUESS: MODEL POTENTIAL
------------------------------
Loading Hartree-Fock densities                     ... done
  calling /sw/apps/orca/orca_4_2_0_linux_x86-64_openmpi314/orca Ag01N0_F_atom47.inp > Ag01N0_F_atom47.out in order to generate an atomic fitting density for atom 0 (Ag with ECP) on-the-fly... 
    atom 0 (Ag), assumed electronic state with S=2: 1s2 2s2 2p6 3s2 3p6 4s2 3d10 4p6 5s2 4d9           ... done
Calculating cut-offs                               ... done
Setting up the integral package                    ... done
Initializing the effective Hamiltonian             ... done
Starting the Coulomb interaction                   ... done (   0.0 sec)
Reading the grid                                   ... done
Mapping shells                                     ... done
Starting the XC term evaluation                    ... done (   0.0 sec)
  promolecular density results
     # of electrons  =     56.001290403
     EX              =   -153.357809509
     EC              =     -2.789793162
     EX+EC           =   -156.147602671
Transforming the Hamiltonian                       ... done (   0.0 sec)
Diagonalizing the Hamiltonian                      ... done (   0.0 sec)
Back transforming the eigenvectors                 ... done (   0.0 sec)
Now organizing SCF variables                       ... done
                      ------------------
                      INITIAL GUESS DONE (   1.7 sec)
                      ------------------
--------------
SCF ITERATIONS
--------------
ITER       Energy         Delta-E        Max-DP      RMS-DP      [F,P]     Damp
               ***  Starting incremental Fock matrix formation  ***
  0   -246.7050690092   0.000000000000 0.07742427  0.00277460  0.5206013 0.7000
  1   -246.7855867091  -0.080517699881 0.05064448  0.00163629  0.3409084 0.7000
  2   -246.8112372751  -0.025650566032 0.02706167  0.00071775  0.2252946 0.7000
                               ***Turning on DIIS***
  3   -246.8279029806  -0.016665705479 0.01130211  0.00036363  0.1534904 0.7000
  4   -246.8404929125  -0.012589931869 0.00793295  0.00025433  0.1068790 0.7000
  5   -246.8493319817  -0.008839069203 0.01897532  0.00062553  0.0757954 0.0000
  6   -246.8700153502  -0.020683368546 0.00074756  0.00003401  0.0011775 0.0000
  7   -246.8700186737  -0.000003323491 0.00045372  0.00001725  0.0014007 0.0000
  8   -246.8700207862  -0.000002112486 0.00064777  0.00001676  0.0001867 0.0000
  9   -246.8700211238  -0.000000337634 0.00011938  0.00000257  0.0001230 0.0000
 10   -246.8700211409  -0.000000017052 0.00004698  0.00000135  0.0000592 0.0000
 11   -246.8700211459  -0.000000005012 0.00002436  0.00000053  0.0000175 0.0000
 12   -246.8700211466  -0.000000000752 0.00000550  0.00000015  0.0000046 0.0000
                 **** Energy Check signals convergence ****

               *****************************************************
               *                     SUCCESS                       *
               *           SCF CONVERGED AFTER  13 CYCLES          *
               *****************************************************


----------------
TOTAL SCF ENERGY
----------------

Total Energy       :         -246.87002115 Eh           -6717.67480 eV

Components:
Nuclear Repulsion  :           45.77391217 Eh            1245.57147 eV
Electronic Energy  :         -292.64393332 Eh           -7963.24627 eV
One Electron Energy:         -492.94955401 Eh          -13413.83931 eV
Two Electron Energy:          200.30562069 Eh            5450.59304 eV

Virial components:
Potential Energy   :         -402.88859183 Eh          -10963.15594 eV
Kinetic Energy     :          156.01857068 Eh            4245.48114 eV
Virial Ratio       :            2.58231177


DFT components:
N(Alpha)           :       14.000010804149 electrons
N(Beta)            :       14.000010804149 electrons
N(Total)           :       28.000021608298 electrons
E(XC)              :      -18.354430770381 Eh       
DFET-embed. en.    :        0.000000000000 Eh       

---------------
SCF CONVERGENCE
---------------

  Last Energy change         ...   -1.2227e-10  Tolerance :   1.0000e-08
  Last MAX-Density change    ...    1.8741e-06  Tolerance :   1.0000e-07
  Last RMS-Density change    ...    4.1410e-08  Tolerance :   5.0000e-09
  Last DIIS Error            ...    9.1596e-07  Tolerance :   5.0000e-07

             **** THE GBW FILE WAS UPDATED (Ag01N0_F.gbw) ****
             **** DENSITY FILE WAS UPDATED (Ag01N0_F.scfp) ****
             **** ENERGY FILE WAS UPDATED (Ag01N0_F.en.tmp) ****
             **** THE GBW FILE WAS UPDATED (Ag01N0_F.gbw) ****
             **** DENSITY FILE WAS UPDATED (Ag01N0_F.scfp) ****
----------------
ORBITAL ENERGIES
----------------

  NO   OCC          E(Eh)            E(eV) 
   0   2.0000     -24.650124      -670.7640 
   1   2.0000      -3.756592      -102.2221 
   2   2.0000      -2.365668       -64.3731 
   3   2.0000      -2.365668       -64.3731 
   4   2.0000      -2.361617       -64.2629 
   5   2.0000      -1.069732       -29.1089 
   6   2.0000      -0.418206       -11.3800 
   7   2.0000      -0.393548       -10.7090 
   8   2.0000      -0.393548       -10.7090 
   9   2.0000      -0.380021       -10.3409 
  10   2.0000      -0.380021       -10.3409 
  11   2.0000      -0.304391        -8.2829 
  12   2.0000      -0.304391        -8.2829 
  13   2.0000      -0.302585        -8.2338 
  14   0.0000      -0.117654        -3.2015 
  15   0.0000      -0.019965        -0.5433 
  16   0.0000      -0.019965        -0.5433 
  17   0.0000       0.005218         0.1420 
  18   0.0000       0.040811         1.1105 
  19   0.0000       0.107185         2.9166 
  20   0.0000       0.119661         3.2562 
  21   0.0000       0.119661         3.2562 
  22   0.0000       0.157226         4.2783 
  23   0.0000       0.157226         4.2783 
  24   0.0000       0.225870         6.1462 
  25   0.0000       0.340799         9.2736 
  26   0.0000       0.386396        10.5144 
  27   0.0000       0.386413        10.5148 
  28   0.0000       0.466933        12.7059 
  29   0.0000       0.466933        12.7059 
  30   0.0000       0.513618        13.9763 
  31   0.0000       0.561509        15.2794 
  32   0.0000       0.561541        15.2803 
  33   0.0000       0.677309        18.4305 
  34   0.0000       0.677309        18.4305 
  35   0.0000       0.682530        18.5726 
  36   0.0000       0.794067        21.6077 
  37   0.0000       0.794067        21.6077 
  38   0.0000       1.025736        27.9117 
  39   0.0000       1.127636        30.6845 
  40   0.0000       1.571127        42.7525 
  41   0.0000       1.571127        42.7525 
  42   0.0000       1.583355        43.0853 
  43   0.0000       1.583357        43.0853 
  44   0.0000       1.604436        43.6589 
  45   0.0000       1.604436        43.6589 
  46   0.0000       1.669572        45.4314 
  47   0.0000       1.682134        45.7732 
  48   0.0000       1.682134        45.7732 
  49   0.0000       1.767906        48.1072 
  50   0.0000       1.979914        53.8762 
  51   0.0000       2.028279        55.1923 
  52   0.0000       2.028282        55.1923 
  53   0.0000       2.033010        55.3210 
  54   0.0000       2.033010        55.3210 
  55   0.0000       2.064176        56.1691 
  56   0.0000       2.364362        64.3376 
  57   0.0000       2.365051        64.3563 
  58   0.0000       2.431210        66.1566 
  59   0.0000       2.431210        66.1566 
  60   0.0000       2.795419        76.0672 
  61   0.0000       3.480721        94.7152 
  62   0.0000       3.480721        94.7152 
  63   0.0000       3.777029       102.7782 
  64   0.0000       4.207410       114.4894 
  65   0.0000       4.756987       129.4442 
  66   0.0000       4.756987       129.4442 
  67   0.0000       4.765177       129.6671 
  68   0.0000       4.765177       129.6671 
  69   0.0000       4.827306       131.3577 
  70   0.0000       4.827306       131.3577 
  71   0.0000       5.020099       136.6038 
  72   0.0000       5.508493       149.8937 
  73   0.0000       5.508493       149.8937 
  74   0.0000       5.508837       149.9031 
  75   0.0000       5.508851       149.9035 
  76   0.0000       5.509107       149.9104 
  77   0.0000       5.509131       149.9111 
  78   0.0000       5.512400       150.0000 
  79   0.0000       5.512400       150.0000 
  80   0.0000       5.578009       151.7854 
  81   0.0000       7.009306       190.7329 
  82   0.0000       7.010134       190.7554 
  83   0.0000       7.022488       191.0916 
  84   0.0000       7.022488       191.0916 
  85   0.0000       7.036323       191.4681 
  86   0.0000       7.036323       191.4681 
  87   0.0000       7.151401       194.5995 
  88   0.0000       8.651226       235.4118 
  89   0.0000       8.651885       235.4297 
  90   0.0000       8.684077       236.3058 
  91   0.0000       8.684077       236.3058 
  92   0.0000       8.883515       241.7327 
  93   0.0000      33.499526       911.5684 
  94   0.0000      56.981445      1550.5440 
  95   0.0000     110.263702      3000.4279 

                    ********************************
                    * MULLIKEN POPULATION ANALYSIS *
                    ********************************

-----------------------
MULLIKEN ATOMIC CHARGES
-----------------------
   0 Ag:    0.643526
   1 F :   -0.643526
Sum of atomic charges:   -0.0000000

--------------------------------
MULLIKEN REDUCED ORBITAL CHARGES
--------------------------------
  0 Ags       :     2.312096  s :     2.312096
      pz      :     2.049517  p :     6.097359
      px      :     2.023921
      py      :     2.023921
      dz2     :     1.933614  d :     9.940487
      dxz     :     2.003065
      dyz     :     2.003065
      dx2y2   :     2.000371
      dxy     :     2.000372
      f0      :     0.003205  f :     0.006444
      f+1     :     0.001514
      f-1     :     0.001514
      f+2     :     0.000106
      f-2     :     0.000106
      f+3     :     0.000000
      f-3     :     0.000000
      g0      :     0.000049  g :     0.000087
      g+1     :     0.000019
      g-1     :     0.000019
      g+2     :     0.000000
      g-2     :     0.000000
      g+3     :     0.000000
      g-3     :     0.000000
      g+4     :     0.000000
      g-4     :     0.000000
  1 F s       :     3.962542  s :     3.962542
      pz      :     1.735935  p :     5.680479
      px      :     1.972272
      py      :     1.972272
      dz2     :     0.003000  d :     0.000410
      dxz     :    -0.000816
      dyz     :    -0.000816
      dx2y2   :    -0.000479
      dxy     :    -0.000480
      f0      :     0.000041  f :     0.000095
      f+1     :     0.000025
      f-1     :     0.000025
      f+2     :     0.000002
      f-2     :     0.000002
      f+3     :     0.000000
      f-3     :     0.000000


                     *******************************
                     * LOEWDIN POPULATION ANALYSIS *
                     *******************************

----------------------
LOEWDIN ATOMIC CHARGES
----------------------
   0 Ag:    0.714647
   1 F :   -0.714647

-------------------------------
LOEWDIN REDUCED ORBITAL CHARGES
-------------------------------
  0 Ags       :     2.182762  s :     2.182762
      pz      :     2.068546  p :     6.136661
      px      :     2.034058
      py      :     2.034058
      dz2     :     1.967974  d :     9.954470
      dxz     :     1.996240
      dyz     :     1.996240
      dx2y2   :     1.997008
      dxy     :     1.997009
      f0      :     0.005829  f :     0.011300
      f+1     :     0.002613
      f-1     :     0.002613
      f+2     :     0.000122
      f-2     :     0.000122
      f+3     :     0.000000
      f-3     :     0.000000
      g0      :     0.000092  g :     0.000159
      g+1     :     0.000034
      g-1     :     0.000034
      g+2     :     0.000000
      g-2     :     0.000000
      g+3     :     0.000000
      g-3     :     0.000000
      g+4     :     0.000000
      g-4     :     0.000000
  1 F s       :     3.891902  s :     3.891902
      pz      :     1.829512  p :     5.721165
      px      :     1.945827
      py      :     1.945827
      dz2     :     0.053265  d :     0.101323
      dxz     :     0.021165
      dyz     :     0.021165
      dx2y2   :     0.002865
      dxy     :     0.002864
      f0      :     0.000117  f :     0.000256
      f+1     :     0.000064
      f-1     :     0.000064
      f+2     :     0.000005
      f-2     :     0.000005
      f+3     :     0.000000
      f-3     :     0.000000


                      *****************************
                      * MAYER POPULATION ANALYSIS *
                      *****************************

  NA   - Mulliken gross atomic population
  ZA   - Total nuclear charge
  QA   - Mulliken gross atomic charge
  VA   - Mayer's total valence
  BVA  - Mayer's bonded valence
  FA   - Mayer's free valence

  ATOM       NA         ZA         QA         VA         BVA        FA
  0 Ag    18.3565    19.0000     0.6435     0.5650     0.5650    -0.0000
  1 F      9.6435     9.0000    -0.6435     0.5650     0.5650    -0.0000

  Mayer bond orders larger than 0.100000
B(  0-Ag,  1-F ) :   0.5650 

-------
TIMINGS
-------

Total SCF time: 0 days 0 hours 0 min 4 sec 

Total time                  ....       4.347 sec
Sum of individual times     ....       4.132 sec  ( 95.1%)

Fock matrix formation       ....       2.359 sec  ( 54.3%)
  XC integration            ....       0.370 sec  ( 15.7% of F)
    Basis function eval.    ....       0.023 sec  (  6.3% of XC)
    Density eval.           ....       0.031 sec  (  8.5% of XC)
    XC-Functional eval.     ....       0.074 sec  ( 19.9% of XC)
    XC-Potential eval.      ....       0.045 sec  ( 12.2% of XC)
Diagonalization             ....       0.016 sec  (  0.4%)
Density matrix formation    ....       0.004 sec  (  0.1%)
Population analysis         ....       0.003 sec  (  0.1%)
Initial guess               ....       1.589 sec  ( 36.6%)
Orbital Transformation      ....       0.000 sec  (  0.0%)
Orbital Orthonormalization  ....       0.000 sec  (  0.0%)
DIIS solution               ....       0.010 sec  (  0.2%)
Grid generation             ....       0.151 sec  (  3.5%)


-------------------------------------------------------------------------------
                          DFT DISPERSION CORRECTION                            
                                                                               
                              DFTD3 V3.1  Rev 1                                
                              USING zero damping                               
-------------------------------------------------------------------------------
The M06 functional is recognized
Active option DFTDOPT                   ...         3   

molecular C6(AA) [au] = 356.028846 


            DFT-D V3
 parameters
 s6 scaling factor         :     1.0000 
 rs6 scaling factor        :     1.3250 
 s8 scaling factor         :     0.0000 
 rs8 scaling factor        :     1.0000 
 Damping factor alpha6     :    14.0000 
 Damping factor alpha8     :    16.0000 
 ad hoc parameters k1-k3   :    16.0000     1.3333    -4.0000 

 Edisp/kcal,au: -0.000337587902  -0.000000537981 
 E6   /kcal   :  -0.000337588 
 E8   /kcal   :  -0.000000000 
 % E8         :   0.000000000 

-------------------------   ----------------
Dispersion correction           -0.000000538
-------------------------   ----------------


-------------------------   --------------------
FINAL SINGLE POINT ENERGY      -246.870021684734
-------------------------   --------------------



           ************************************************************
           *        Program running with 24 parallel MPI-processes    *
           *              working on a common directory               *
           ************************************************************
------------------------------------------------------------------------------
                         ORCA SCF GRADIENT CALCULATION
------------------------------------------------------------------------------

Gradient of the Kohn-Sham DFT energy:
Kohn-Sham wavefunction type      ... RKS
Hartree-Fock exchange scaling    ...    0.270
Number of operators              ...    1
Number of atoms                  ...    2
Basis set dimensions             ...   96
Integral neglect threshold       ... 2.5e-11
Integral primitive cutoff        ... 2.5e-12

Nuclear repulsion gradient       ... done
One Electron Gradient            
  ECP gradient                   ... done
Pre-screening matrix             ... done
Starting the two electron gradient:
Two electron gradient done
Exchange-correlation gradient    ... done
Dispersion correction            ... done

------------------
CARTESIAN GRADIENT
------------------

   1   Ag  :   -0.000000001    0.000000001   -0.015309151
   2   F   :    0.000000019   -0.000000005    0.010827192

Difference to translation invariance:
           :    0.0000000173   -0.0000000033   -0.0044819591

Norm of the cartesian gradient     ...    0.0187509511
RMS gradient                       ...    0.0076550437
MAX gradient                       ...    0.0153091506

-------
TIMINGS
-------

Total SCF gradient time            ...        0.747 sec

One electron gradient       ....       0.145 sec  ( 19.4%)
Prescreening matrices       ....       0.006 sec  (  0.8%)
Two electron gradient       ....       0.402 sec  ( 53.8%)
XC gradient                 ....       0.014 sec  (  1.9%)
------------------------------------------------------------------------------
                         ORCA GEOMETRY RELAXATION STEP
------------------------------------------------------------------------------

Reading the OPT-File                    .... done
Getting information on internals        .... done
Copying old internal coords+grads       .... done
Making the new internal coordinates     .... (new redundants).... done
Validating the new internal coordinates .... (new redundants).... done
Calculating the B-matrix                .... done
Calculating the G,G- and P matrices     .... done
Transforming gradient to internals      .... done
Projecting the internal gradient        .... done
Number of atoms                         ....   2
Number of internal coordinates          ....   1
Current Energy                          ....  -246.870021685 Eh
Current gradient norm                   ....     0.018750951 Eh/bohr
Maximum allowed component of the step   ....  0.300
Current trust radius                    ....  0.300
Evaluating the initial hessian          ....  (Almloef) done
Projecting the Hessian                  .... done
Forming the augmented Hessian           .... done
Diagonalizing the augmented Hessian     .... done
Last element of RFO vector              ....  0.999770221
Lowest eigenvalues of augmented Hessian:
 -0.000280195
Length of the computed step             ....  0.021441007
The final length of the internal step   ....  0.021441007
Converting the step to cartesian space:
 Initial RMS(Int)=    0.0214410073
Transforming coordinates:
 Iter   0:  RMS(Cart)=    0.0061894857 RMS(Int)=    0.0214410073
 Iter   1:  RMS(Cart)=    0.0000000000 RMS(Int)=    0.0000000000
done
Storing new coordinates                 .... done

                                .--------------------.
          ----------------------|Geometry convergence|-------------------------
          Item                value                   Tolerance       Converged
          ---------------------------------------------------------------------
          RMS gradient        0.0130681710            0.0001000000      NO
          MAX gradient        0.0130681710            0.0003000000      NO
          RMS step            0.0214410073            0.0020000000      NO
          MAX step            0.0214410073            0.0040000000      NO
          ........................................................
          Max(Bonds)      0.0113      Max(Angles)    0.00
          Max(Dihed)        0.00      Max(Improp)    0.00
          ---------------------------------------------------------------------

The optimization has not yet converged - more geometry cycles are needed


    ---------------------------------------------------------------------------
                         Redundant Internal Coordinates
                            (Angstroem and degrees)

        Definition                    Value    dE/dq     Step     New-Value
    ----------------------------------------------------------------------------
     1. B(F   1,Ag  0)                1.9769 -0.013068  0.0113    1.9882   
    ----------------------------------------------------------------------------

         *************************************************************
         *                GEOMETRY OPTIMIZATION CYCLE   2            *
         *************************************************************
---------------------------------
CARTESIAN COORDINATES (ANGSTROEM)
---------------------------------
  Ag     0.000000    0.000000    0.323385
  F      0.000000    0.000000   -1.664836

----------------------------
CARTESIAN COORDINATES (A.U.)
----------------------------
  NO LB      ZA    FRAG     MASS         X           Y           Z
   0 Ag   19.0000*   0   107.870    0.000000    0.000000    0.611109
   1 F     9.0000    0    18.998    0.000000    0.000000   -3.146084
* core charge reduced due to ECP

--------------------------------
INTERNAL COORDINATES (ANGSTROEM)
--------------------------------
 Ag     0   0   0     0.000000000000     0.00000000     0.00000000
 F      1   0   0     1.988221092385     0.00000000     0.00000000

---------------------------
INTERNAL COORDINATES (A.U.)
---------------------------
 Ag     0   0   0     0.000000000000     0.00000000     0.00000000
 F      1   0   0     3.757193358293     0.00000000     0.00000000



           ************************************************************
           *        Program running with 24 parallel MPI-processes    *
           *              working on a common directory               *
           ************************************************************


           ************************************************************
           *        Program running with 24 parallel MPI-processes    *
           *              working on a common directory               *
           ************************************************************

Diagonalization of the overlap matrix:
Smallest eigenvalue                        ... 3.483e-03
Time for diagonalization                   ...    0.003 sec
Threshold for overlap eigenvalues          ... 1.000e-08
Number of eigenvalues below threshold      ... 0
Time for construction of square roots      ...    0.001 sec
Total time needed                          ...    0.005 sec

-------------------
DFT GRID GENERATION
-------------------

General Integration Accuracy     IntAcc      ...  4.670
Radial Grid Type                 RadialGrid  ... Gauss-Chebyshev
Angular Grid (max. acc.)         AngularGrid ... Lebedev-302
Angular grid pruning method      GridPruning ... 3 (G Style)
Weight generation scheme         WeightScheme... Becke
Basis function cutoff            BFCut       ...    1.0000e-11
Integration weight cutoff        WCut        ...    1.0000e-14
Grids for H and He will be reduced by one unit

# of grid points (after initial pruning)     ...  16930 (   0.0 sec)
# of grid points (after weights+screening)   ...  16875 (   0.0 sec)
nearest neighbour list constructed           ...    0.0 sec
Grid point re-assignment to atoms done       ...    0.0 sec
Grid point division into batches done        ...    0.1 sec
Reduced shell lists constructed in    0.1 sec

Total number of grid points                  ...    16875
Total number of batches                      ...      265
Average number of points per batch           ...       63
Average number of grid points per atom       ...     8438
Average number of shells per batch           ...     3.31 (11.03%)
Average number of basis functions per batch  ...     7.62 ( 7.93%)
Average number of large shells per batch     ...     2.08 (62.79%)
Average number of large basis fcns per batch ...     4.38 (57.58%)
Maximum spatial batch extension              ...  36.77, 40.43, 23.83 au
Average spatial batch extension              ...   1.19,  1.22,  0.86 au

Time for grid setup =    0.161 sec

--------------
SCF ITERATIONS
--------------
ITER       Energy         Delta-E        Max-DP      RMS-DP      [F,P]     Damp
               ***  Starting incremental Fock matrix formation  ***
  0   -246.8701067285   0.000000000000 0.00036201  0.00001640  0.0159921 0.7000
  1   -246.8701111793  -0.000004450746 0.00033458  0.00001445  0.0112293 0.7000
                               ***Turning on DIIS***
  2   -246.8701143805  -0.000003201185 0.00094593  0.00003688  0.0078732 0.0000
  3   -246.8701225191  -0.000008138662 0.00094111  0.00002043  0.0002781 0.0000
  4   -246.8701227926  -0.000000273441 0.00023670  0.00000740  0.0004658 0.0000
  5   -246.8701230615  -0.000000268897 0.00023116  0.00000488  0.0001425 0.0000
  6   -246.8701230973  -0.000000035839 0.00006469  0.00000185  0.0000793 0.0000
  7   -246.8701231077  -0.000000010458 0.00002948  0.00000078  0.0000242 0.0000
  8   -246.8701231094  -0.000000001614 0.00000829  0.00000020  0.0000048 0.0000
                 **** Energy Check signals convergence ****

               *****************************************************
               *                     SUCCESS                       *
               *           SCF CONVERGED AFTER   9 CYCLES          *
               *****************************************************

Total Energy       :         -246.87012311 Eh           -6717.67757 eV
  Last Energy change         ...   -8.5237e-11  Tolerance :   1.0000e-08
  Last MAX-Density change    ...    1.6065e-06  Tolerance :   1.0000e-07
             **** THE GBW FILE WAS UPDATED (Ag01N0_F.gbw) ****
             **** DENSITY FILE WAS UPDATED (Ag01N0_F.scfp) ****
             **** ENERGY FILE WAS UPDATED (Ag01N0_F.en.tmp) ****
             **** THE GBW FILE WAS UPDATED (Ag01N0_F.gbw) ****
             **** DENSITY FILE WAS UPDATED (Ag01N0_F.scfp) ****
Total SCF time: 0 days 0 hours 0 min 2 sec 


-------------------------------------------------------------------------------
                          DFT DISPERSION CORRECTION                            
                                                                               
                              DFTD3 V3.1  Rev 1                                
                              USING zero damping                               
-------------------------------------------------------------------------------
-------------------------   ----------------
Dispersion correction           -0.000000563
-------------------------   ----------------


-------------------------   --------------------
FINAL SINGLE POINT ENERGY      -246.870123672779
-------------------------   --------------------



           ************************************************************
           *        Program running with 24 parallel MPI-processes    *
           *              working on a common directory               *
           ************************************************************
------------------------------------------------------------------------------
                         ORCA SCF GRADIENT CALCULATION
------------------------------------------------------------------------------

Gradient of the Kohn-Sham DFT energy:
Kohn-Sham wavefunction type      ... RKS
Hartree-Fock exchange scaling    ...    0.270
Number of operators              ...    1
Number of atoms                  ...    2
Basis set dimensions             ...   96
Integral neglect threshold       ... 2.5e-11
Integral primitive cutoff        ... 2.5e-12

Nuclear repulsion gradient       ... done
One Electron Gradient            
  ECP gradient                   ... done
Pre-screening matrix             ... done
Starting the two electron gradient:
Two electron gradient done
Exchange-correlation gradient    ... done
Dispersion correction            ... done

------------------
CARTESIAN GRADIENT
------------------

   1   Ag  :   -0.000000000    0.000000006   -0.011663562
   2   F   :   -0.000000016   -0.000000001    0.007374824

Difference to translation invariance:
           :   -0.0000000161    0.0000000051   -0.0042887377

Norm of the cartesian gradient     ...    0.0137995179
RMS gradient                       ...    0.0056336296
MAX gradient                       ...    0.0116635616

-------
TIMINGS
-------

Total SCF gradient time            ...        0.753 sec

One electron gradient       ....       0.127 sec  ( 16.9%)
Prescreening matrices       ....       0.006 sec  (  0.7%)
Two electron gradient       ....       0.402 sec  ( 53.3%)
XC gradient                 ....       0.015 sec  (  1.9%)
------------------------------------------------------------------------------
                         ORCA GEOMETRY RELAXATION STEP
------------------------------------------------------------------------------

Reading the OPT-File                    .... done
Getting information on internals        .... done
Copying old internal coords+grads       .... done
Making the new internal coordinates     .... (new redundants).... done
Validating the new internal coordinates .... (new redundants).... done
Calculating the B-matrix                .... done
Calculating the G,G- and P matrices     .... done
Transforming gradient to internals      .... done
Projecting the internal gradient        .... done
Number of atoms                         ....   2
Number of internal coordinates          ....   1
Current Energy                          ....  -246.870123673 Eh
Current gradient norm                   ....     0.013799518 Eh/bohr
Maximum allowed component of the step   ....  0.300
Current trust radius                    ....  0.300
Updating the Hessian (BFGS)             .... done
Forming the augmented Hessian           .... done
Diagonalizing the augmented Hessian     .... done
Last element of RFO vector              ....  0.998361197
Lowest eigenvalues of augmented Hessian:
 -0.000545648
Length of the computed step             ....  0.057320854
The final length of the internal step   ....  0.057320854
Converting the step to cartesian space:
 Initial RMS(Int)=    0.0573208539
Transforming coordinates:
 Iter   0:  RMS(Cart)=    0.0165471052 RMS(Int)=    0.0573208539
 Iter   1:  RMS(Cart)=    0.0000000000 RMS(Int)=    0.0000000000
done
Storing new coordinates                 .... done

                                .--------------------.
          ----------------------|Geometry convergence|-------------------------
          Item                value                   Tolerance       Converged
          ---------------------------------------------------------------------
          Energy change      -0.0001019880            0.0000050000      NO
          RMS gradient        0.0095191927            0.0001000000      NO
          MAX gradient        0.0095191927            0.0003000000      NO
          RMS step            0.0573208539            0.0020000000      NO
          MAX step            0.0573208539            0.0040000000      NO
          ........................................................
          Max(Bonds)      0.0303      Max(Angles)    0.00
          Max(Dihed)        0.00      Max(Improp)    0.00
          ---------------------------------------------------------------------

The optimization has not yet converged - more geometry cycles are needed


    ---------------------------------------------------------------------------
                         Redundant Internal Coordinates
                            (Angstroem and degrees)

        Definition                    Value    dE/dq     Step     New-Value
    ----------------------------------------------------------------------------
     1. B(F   1,Ag  0)                1.9882 -0.009519  0.0303    2.0186   
    ----------------------------------------------------------------------------

         *************************************************************
         *                GEOMETRY OPTIMIZATION CYCLE   3            *
         *************************************************************
---------------------------------
CARTESIAN COORDINATES (ANGSTROEM)
---------------------------------
  Ag     0.000000    0.000000    0.338551
  F      0.000000    0.000000   -1.680002

----------------------------
CARTESIAN COORDINATES (A.U.)
----------------------------
  NO LB      ZA    FRAG     MASS         X           Y           Z
   0 Ag   19.0000*   0   107.870    0.000000    0.000000    0.639770
   1 F     9.0000    0    18.998    0.000000    0.000000   -3.174745
* core charge reduced due to ECP

--------------------------------
INTERNAL COORDINATES (ANGSTROEM)
--------------------------------
 Ag     0   0   0     0.000000000000     0.00000000     0.00000000
 F      1   0   0     2.018553981821     0.00000000     0.00000000

---------------------------
INTERNAL COORDINATES (A.U.)
---------------------------
 Ag     0   0   0     0.000000000000     0.00000000     0.00000000
 F      1   0   0     3.814514212179     0.00000000     0.00000000



           ************************************************************
           *        Program running with 24 parallel MPI-processes    *
           *              working on a common directory               *
           ************************************************************


           ************************************************************
           *        Program running with 24 parallel MPI-processes    *
           *              working on a common directory               *
           ************************************************************

Diagonalization of the overlap matrix:
Smallest eigenvalue                        ... 3.735e-03
Time for diagonalization                   ...    0.003 sec
Threshold for overlap eigenvalues          ... 1.000e-08
Number of eigenvalues below threshold      ... 0
Time for construction of square roots      ...    0.001 sec
Total time needed                          ...    0.005 sec

-------------------
DFT GRID GENERATION
-------------------

General Integration Accuracy     IntAcc      ...  4.670
Radial Grid Type                 RadialGrid  ... Gauss-Chebyshev
Angular Grid (max. acc.)         AngularGrid ... Lebedev-302
Angular grid pruning method      GridPruning ... 3 (G Style)
Weight generation scheme         WeightScheme... Becke
Basis function cutoff            BFCut       ...    1.0000e-11
Integration weight cutoff        WCut        ...    1.0000e-14
Grids for H and He will be reduced by one unit

# of grid points (after initial pruning)     ...  16930 (   0.0 sec)
# of grid points (after weights+screening)   ...  16875 (   0.0 sec)
nearest neighbour list constructed           ...    0.0 sec
Grid point re-assignment to atoms done       ...    0.0 sec
Grid point division into batches done        ...    0.1 sec
Reduced shell lists constructed in    0.1 sec

Total number of grid points                  ...    16875
Total number of batches                      ...      264
Average number of points per batch           ...       63
Average number of grid points per atom       ...     8438
Average number of shells per batch           ...     3.00 (10.00%)
Average number of basis functions per batch  ...     6.83 ( 7.12%)
Average number of large shells per batch     ...     2.00 (66.67%)
Average number of large basis fcns per batch ...     4.17 (60.98%)
Maximum spatial batch extension              ...  36.77, 40.43, 23.83 au
Average spatial batch extension              ...   1.11,  1.17,  0.81 au

Time for grid setup =    0.174 sec

--------------
SCF ITERATIONS
--------------
ITER       Energy         Delta-E        Max-DP      RMS-DP      [F,P]     Damp
               ***  Starting incremental Fock matrix formation  ***
  0   -246.8699374395   0.000000000000 0.00090748  0.00004175  0.0409907 0.7000
  1   -246.8699668390  -0.000029399500 0.00082513  0.00003664  0.0287841 0.7000
                               ***Turning on DIIS***
  2   -246.8699878567  -0.000021017734 0.00249246  0.00009340  0.0201819 0.0000
  3   -246.8700412005  -0.000053343768 0.00248382  0.00005297  0.0007053 0.0000
  4   -246.8700428155  -0.000001615053 0.00035661  0.00001309  0.0012583 0.0000
  5   -246.8700447135  -0.000001897968 0.00060268  0.00001154  0.0002103 0.0000
  6   -246.8700449775  -0.000000263983 0.00019962  0.00000511  0.0001295 0.0000
  7   -246.8700450126  -0.000000035140 0.00006524  0.00000174  0.0000649 0.0000
  8   -246.8700450228  -0.000000010162 0.00002030  0.00000045  0.0000186 0.0000
  9   -246.8700450234  -0.000000000558 0.00000420  0.00000010  0.0000042 0.0000
                 **** Energy Check signals convergence ****

               *****************************************************
               *                     SUCCESS                       *
               *           SCF CONVERGED AFTER  10 CYCLES          *
               *****************************************************

Total Energy       :         -246.87004502 Eh           -6717.67545 eV
  Last Energy change         ...    9.3223e-12  Tolerance :   1.0000e-08
  Last MAX-Density change    ...    1.4052e-06  Tolerance :   1.0000e-07
             **** THE GBW FILE WAS UPDATED (Ag01N0_F.gbw) ****
             **** DENSITY FILE WAS UPDATED (Ag01N0_F.scfp) ****
             **** ENERGY FILE WAS UPDATED (Ag01N0_F.en.tmp) ****
             **** THE GBW FILE WAS UPDATED (Ag01N0_F.gbw) ****
             **** DENSITY FILE WAS UPDATED (Ag01N0_F.scfp) ****
Total SCF time: 0 days 0 hours 0 min 2 sec 


-------------------------------------------------------------------------------
                          DFT DISPERSION CORRECTION                            
                                                                               
                              DFTD3 V3.1  Rev 1                                
                              USING zero damping                               
-------------------------------------------------------------------------------
-------------------------   ----------------
Dispersion correction           -0.000000636
-------------------------   ----------------


-------------------------   --------------------
FINAL SINGLE POINT ENERGY      -246.870045659774
-------------------------   --------------------



           ************************************************************
           *        Program running with 24 parallel MPI-processes    *
           *              working on a common directory               *
           ************************************************************
------------------------------------------------------------------------------
                         ORCA SCF GRADIENT CALCULATION
------------------------------------------------------------------------------

Gradient of the Kohn-Sham DFT energy:
Kohn-Sham wavefunction type      ... RKS
Hartree-Fock exchange scaling    ...    0.270
Number of operators              ...    1
Number of atoms                  ...    2
Basis set dimensions             ...   96
Integral neglect threshold       ... 2.5e-11
Integral primitive cutoff        ... 2.5e-12

Nuclear repulsion gradient       ... done
One Electron Gradient            
  ECP gradient                   ... done
Pre-screening matrix             ... done
Starting the two electron gradient:
Two electron gradient done
Exchange-correlation gradient    ... done
Dispersion correction            ... done

------------------
CARTESIAN GRADIENT
------------------

   1   Ag  :    0.000000000   -0.000000005   -0.003148555
   2   F   :   -0.000000000   -0.000000005   -0.001167948

Difference to translation invariance:
           :   -0.0000000001   -0.0000000097   -0.0043165036

Norm of the cartesian gradient     ...    0.0033581995
RMS gradient                       ...    0.0013709792
MAX gradient                       ...    0.0031485554

-------
TIMINGS
-------

Total SCF gradient time            ...        0.786 sec

One electron gradient       ....       0.184 sec  ( 23.4%)
Prescreening matrices       ....       0.006 sec  (  0.7%)
Two electron gradient       ....       0.397 sec  ( 50.6%)
XC gradient                 ....       0.012 sec  (  1.6%)
------------------------------------------------------------------------------
                         ORCA GEOMETRY RELAXATION STEP
------------------------------------------------------------------------------

Reading the OPT-File                    .... done
Getting information on internals        .... done
Copying old internal coords+grads       .... done
Making the new internal coordinates     .... (new redundants).... done
Validating the new internal coordinates .... (new redundants).... done
Calculating the B-matrix                .... done
Calculating the G,G- and P matrices     .... done
Transforming gradient to internals      .... done
Projecting the internal gradient        .... done
Number of atoms                         ....   2
Number of internal coordinates          ....   1
Current Energy                          ....  -246.870045660 Eh
Current gradient norm                   ....     0.003358200 Eh/bohr
Maximum allowed component of the step   ....  0.300
Current trust radius                    ....  0.300
Updating the Hessian (BFGS)             .... done
Forming the augmented Hessian           .... done
Diagonalizing the augmented Hessian     .... done
Last element of RFO vector              ....  0.999977854
Lowest eigenvalues of augmented Hessian:
 -0.000006591
Length of the computed step             ....  0.006655326
The final length of the internal step   ....  0.006655326
Converting the step to cartesian space:
 Initial RMS(Int)=    0.0066553257
Transforming coordinates:
 Iter   0:  RMS(Cart)=    0.0019212271 RMS(Int)=    0.0066553257
 Iter   1:  RMS(Cart)=    0.0000000000 RMS(Int)=    0.0000000000
done
Storing new coordinates                 .... done

                                .--------------------.
          ----------------------|Geometry convergence|-------------------------
          Item                value                   Tolerance       Converged
          ---------------------------------------------------------------------
          Energy change       0.0000780130            0.0000050000      NO
          RMS gradient        0.0009903036            0.0001000000      NO
          MAX gradient        0.0009903036            0.0003000000      NO
          RMS step            0.0066553257            0.0020000000      NO
          MAX step            0.0066553257            0.0040000000      NO
          ........................................................
          Max(Bonds)      0.0035      Max(Angles)    0.00
          Max(Dihed)        0.00      Max(Improp)    0.00
          ---------------------------------------------------------------------

The optimization has not yet converged - more geometry cycles are needed


    ---------------------------------------------------------------------------
                         Redundant Internal Coordinates
                            (Angstroem and degrees)

        Definition                    Value    dE/dq     Step     New-Value
    ----------------------------------------------------------------------------
     1. B(F   1,Ag  0)                2.0186 -0.000990  0.0035    2.0221   
    ----------------------------------------------------------------------------

         *************************************************************
         *                GEOMETRY OPTIMIZATION CYCLE   4            *
         *************************************************************
---------------------------------
CARTESIAN COORDINATES (ANGSTROEM)
---------------------------------
  Ag     0.000000    0.000000    0.340312
  F      0.000000    0.000000   -1.681763

----------------------------
CARTESIAN COORDINATES (A.U.)
----------------------------
  NO LB      ZA    FRAG     MASS         X           Y           Z
   0 Ag   19.0000*   0   107.870    0.000000    0.000000    0.643097
   1 F     9.0000    0    18.998    0.000000    0.000000   -3.178072
* core charge reduced due to ECP

--------------------------------
INTERNAL COORDINATES (ANGSTROEM)
--------------------------------
 Ag     0   0   0     0.000000000000     0.00000000     0.00000000
 F      1   0   0     2.022075828513     0.00000000     0.00000000

---------------------------
INTERNAL COORDINATES (A.U.)
---------------------------
 Ag     0   0   0     0.000000000000     0.00000000     0.00000000
 F      1   0   0     3.821169537912     0.00000000     0.00000000



           ************************************************************
           *        Program running with 24 parallel MPI-processes    *
           *              working on a common directory               *
           ************************************************************


           ************************************************************
           *        Program running with 24 parallel MPI-processes    *
           *              working on a common directory               *
           ************************************************************

Diagonalization of the overlap matrix:
Smallest eigenvalue                        ... 3.765e-03
Time for diagonalization                   ...    0.003 sec
Threshold for overlap eigenvalues          ... 1.000e-08
Number of eigenvalues below threshold      ... 0
Time for construction of square roots      ...    0.002 sec
Total time needed                          ...    0.005 sec

-------------------
DFT GRID GENERATION
-------------------

General Integration Accuracy     IntAcc      ...  4.670
Radial Grid Type                 RadialGrid  ... Gauss-Chebyshev
Angular Grid (max. acc.)         AngularGrid ... Lebedev-302
Angular grid pruning method      GridPruning ... 3 (G Style)
Weight generation scheme         WeightScheme... Becke
Basis function cutoff            BFCut       ...    1.0000e-11
Integration weight cutoff        WCut        ...    1.0000e-14
Grids for H and He will be reduced by one unit

# of grid points (after initial pruning)     ...  16930 (   0.0 sec)
# of grid points (after weights+screening)   ...  16875 (   0.0 sec)
nearest neighbour list constructed           ...    0.0 sec
Grid point re-assignment to atoms done       ...    0.0 sec
Grid point division into batches done        ...    0.1 sec
Reduced shell lists constructed in    0.1 sec

Total number of grid points                  ...    16875
Total number of batches                      ...      264
Average number of points per batch           ...       63
Average number of grid points per atom       ...     8438
Average number of shells per batch           ...     3.00 (10.00%)
Average number of basis functions per batch  ...     6.83 ( 7.12%)
Average number of large shells per batch     ...     2.00 (66.67%)
Average number of large basis fcns per batch ...     4.17 (60.98%)
Maximum spatial batch extension              ...  36.77, 40.43, 23.83 au
Average spatial batch extension              ...   1.12,  1.15,  0.81 au

Time for grid setup =    0.171 sec

--------------
SCF ITERATIONS
--------------
ITER       Energy         Delta-E        Max-DP      RMS-DP      [F,P]     Damp
               ***  Starting incremental Fock matrix formation  ***
  0   -246.8700033325   0.000000000000 0.00010025  0.00000463  0.0045595 0.7000
  1   -246.8700037014  -0.000000368944 0.00008814  0.00000406  0.0032017 0.7000
                               ***Turning on DIIS***
  2   -246.8700039651  -0.000000263684 0.00028457  0.00001038  0.0022448 0.0000
  3   -246.8700046336  -0.000000668476 0.00027638  0.00000591  0.0000790 0.0000
  4   -246.8700046534  -0.000000019784 0.00007693  0.00000221  0.0001409 0.0000
  5   -246.8700046772  -0.000000023809 0.00006490  0.00000137  0.0000414 0.0000
  6   -246.8700046801  -0.000000002919 0.00001876  0.00000053  0.0000226 0.0000
  7   -246.8700046810  -0.000000000858 0.00000913  0.00000023  0.0000068 0.0000
  8   -246.8700046811  -0.000000000150 0.00000243  0.00000006  0.0000014 0.0000
                 **** Energy Check signals convergence ****

               *****************************************************
               *                     SUCCESS                       *
               *           SCF CONVERGED AFTER   9 CYCLES          *
               *****************************************************

Total Energy       :         -246.87000468 Eh           -6717.67435 eV
  Last Energy change         ...   -2.7882e-11  Tolerance :   1.0000e-08
  Last MAX-Density change    ...    4.7687e-07  Tolerance :   1.0000e-07
             **** THE GBW FILE WAS UPDATED (Ag01N0_F.gbw) ****
             **** DENSITY FILE WAS UPDATED (Ag01N0_F.scfp) ****
             **** ENERGY FILE WAS UPDATED (Ag01N0_F.en.tmp) ****
             **** THE GBW FILE WAS UPDATED (Ag01N0_F.gbw) ****
             **** DENSITY FILE WAS UPDATED (Ag01N0_F.scfp) ****
Total SCF time: 0 days 0 hours 0 min 2 sec 


-------------------------------------------------------------------------------
                          DFT DISPERSION CORRECTION                            
                                                                               
                              DFTD3 V3.1  Rev 1                                
                              USING zero damping                               
-------------------------------------------------------------------------------
-------------------------   ----------------
Dispersion correction           -0.000000645
-------------------------   ----------------


-------------------------   --------------------
FINAL SINGLE POINT ENERGY      -246.870005326592
-------------------------   --------------------



           ************************************************************
           *        Program running with 24 parallel MPI-processes    *
           *              working on a common directory               *
           ************************************************************
------------------------------------------------------------------------------
                         ORCA SCF GRADIENT CALCULATION
------------------------------------------------------------------------------

Gradient of the Kohn-Sham DFT energy:
Kohn-Sham wavefunction type      ... RKS
Hartree-Fock exchange scaling    ...    0.270
Number of operators              ...    1
Number of atoms                  ...    2
Basis set dimensions             ...   96
Integral neglect threshold       ... 2.5e-11
Integral primitive cutoff        ... 2.5e-12

Nuclear repulsion gradient       ... done
One Electron Gradient            
  ECP gradient                   ... done
Pre-screening matrix             ... done
Starting the two electron gradient:
Two electron gradient done
Exchange-correlation gradient    ... done
Dispersion correction            ... done

------------------
CARTESIAN GRADIENT
------------------

   1   Ag  :   -0.000000002    0.000000006   -0.002272817
   2   F   :    0.000000000   -0.000000002   -0.002102465

Difference to translation invariance:
           :   -0.0000000015    0.0000000039   -0.0043752818

Norm of the cartesian gradient     ...    0.0030961355
RMS gradient                       ...    0.0012639920
MAX gradient                       ...    0.0022728165

-------
TIMINGS
-------

Total SCF gradient time            ...        0.738 sec

One electron gradient       ....       0.133 sec  ( 18.0%)
Prescreening matrices       ....       0.006 sec  (  0.8%)
Two electron gradient       ....       0.397 sec  ( 53.8%)
XC gradient                 ....       0.011 sec  (  1.5%)
------------------------------------------------------------------------------
                         ORCA GEOMETRY RELAXATION STEP
------------------------------------------------------------------------------

Reading the OPT-File                    .... done
Getting information on internals        .... done
Copying old internal coords+grads       .... done
Making the new internal coordinates     .... (new redundants).... done
Validating the new internal coordinates .... (new redundants).... done
Calculating the B-matrix                .... done
Calculating the G,G- and P matrices     .... done
Transforming gradient to internals      .... done
Projecting the internal gradient        .... done
Number of atoms                         ....   2
Number of internal coordinates          ....   1
Current Energy                          ....  -246.870005327 Eh
Current gradient norm                   ....     0.003096135 Eh/bohr
Maximum allowed component of the step   ....  0.300
Current trust radius                    ....  0.300
Updating the Hessian (BFGS)             .... done
Forming the augmented Hessian           .... done
Diagonalizing the augmented Hessian     .... done
Last element of RFO vector              ....  0.999999804
Lowest eigenvalues of augmented Hessian:
 -0.000000053
Length of the computed step             ....  0.000626289
The final length of the internal step   ....  0.000626289
Converting the step to cartesian space:
 Initial RMS(Int)=    0.0006262887
Transforming coordinates:
 Iter   0:  RMS(Cart)=    0.0001807940 RMS(Int)=    0.0006262887
 Iter   1:  RMS(Cart)=    0.0000000000 RMS(Int)=    0.0000000000
done
Storing new coordinates                 .... done

                                .--------------------.
          ----------------------|Geometry convergence|-------------------------
          Item                value                   Tolerance       Converged
          ---------------------------------------------------------------------
          Energy change       0.0000403332            0.0000050000      NO
          RMS gradient        0.0000851756            0.0001000000      YES
          MAX gradient        0.0000851756            0.0003000000      YES
          RMS step            0.0006262887            0.0020000000      YES
          MAX step            0.0006262887            0.0040000000      YES
          ........................................................
          Max(Bonds)      0.0003      Max(Angles)    0.00
          Max(Dihed)        0.00      Max(Improp)    0.00
          ---------------------------------------------------------------------

       Everything but the energy has converged. However, the energy
       appears to be close enough to convergence to make sure that the
       final evaluation at the new geometry represents the equilibrium energy.
       Convergence will therefore be signaled now


                    ***********************HURRAY********************
                    ***        THE OPTIMIZATION HAS CONVERGED     ***
                    *************************************************


    ---------------------------------------------------------------------------
                         Redundant Internal Coordinates

                          --- Optimized Parameters ---  
                            (Angstroem and degrees)

        Definition                    OldVal   dE/dq     Step     FinalVal
    ----------------------------------------------------------------------------
     1. B(F   1,Ag  0)                2.0221 -0.000085  0.0003    2.0224   
    ----------------------------------------------------------------------------
                 *******************************************************
                 *** FINAL ENERGY EVALUATION AT THE STATIONARY POINT ***
                 ***               (AFTER    4 CYCLES)               ***
                 *******************************************************
---------------------------------
CARTESIAN COORDINATES (ANGSTROEM)
---------------------------------
  Ag     0.000000    0.000000    0.340478
  F      0.000000    0.000000   -1.681929

----------------------------
CARTESIAN COORDINATES (A.U.)
----------------------------
  NO LB      ZA    FRAG     MASS         X           Y           Z
   0 Ag   19.0000*   0   107.870    0.000000    0.000000    0.643410
   1 F     9.0000    0    18.998    0.000000    0.000000   -3.178385
* core charge reduced due to ECP

--------------------------------
INTERNAL COORDINATES (ANGSTROEM)
--------------------------------
 Ag     0   0   0     0.000000000000     0.00000000     0.00000000
 F      1   0   0     2.022407246213     0.00000000     0.00000000

---------------------------
INTERNAL COORDINATES (A.U.)
---------------------------
 Ag     0   0   0     0.000000000000     0.00000000     0.00000000
 F      1   0   0     3.821795826600     0.00000000     0.00000000

---------------------
BASIS SET INFORMATION
---------------------
There are 2 groups of distinct atoms

 Group   1 Type Ag  : 7s7p6d2f1g contracted to 6s4p3d2f1g pattern {211111/4111/411/11/1}
 Group   2 Type F   : 12s7p3d1f contracted to 6s4p3d1f pattern {621111/4111/111/1}

Atom   0Ag   basis set group =>   1
Atom   1F    basis set group =>   2
----------------------------------
AUXILIARY/JK BASIS SET INFORMATION
----------------------------------
There are 2 groups of distinct atoms

 Group   1 Type Ag  : 13s12p10d9f6g3h2i contracted to 11s10p9d8f6g3h2i pattern {31111111111/3111111111/211111111/21111111/111111/111/11}
 Group   2 Type F   : 14s10p6d2f1g contracted to 10s8p4d2f1g pattern {5111111111/31111111/3111/11/1}

Atom   0Ag   basis set group =>   1
Atom   1F    basis set group =>   2
-------------------------
ECP PARAMETER INFORMATION
-------------------------

 Group 1, Type Ag ECP Def2-ECP (replacing 28 core electrons, lmax=3)

Atom   0Ag   ECP group =>   1



           ************************************************************
           *        Program running with 24 parallel MPI-processes    *
           *              working on a common directory               *
           ************************************************************
------------------------------------------------------------------------------
                           ORCA GTO INTEGRAL CALCULATION
------------------------------------------------------------------------------

                         BASIS SET STATISTICS AND STARTUP INFO

 # of primitive gaussian shells          ...   46
 # of primitive gaussian functions       ...  136
 # of contracted shells                  ...   30
 # of contracted basis functions         ...   96
 Highest angular momentum                ...    4
 Maximum contraction depth               ...    6
 Integral package used                   ... LIBINT
 Integral threshhold            Thresh   ...  2.500e-11
 Primitive cut-off              TCut     ...  2.500e-12


------------------------------ INTEGRAL EVALUATION ----------------------------


 * One electron integrals 

   ECP integrals                         ... done
 Pre-screening matrix                    ... done
 Shell pair data                         ... done (   0.000 sec)



           ************************************************************
           *        Program running with 24 parallel MPI-processes    *
           *              working on a common directory               *
           ************************************************************
-------------------------------------------------------------------------------
                                 ORCA SCF
-------------------------------------------------------------------------------

------------
SCF SETTINGS
------------
Hamiltonian:
 Density Functional     Method          .... DFT(GTOs)
 Exchange Functional    Exchange        .... M06
 Correlation Functional Correlation     .... M06
 Gradients option       PostSCFGGA      .... off
 Hybrid DFT is turned on
   Fraction HF Exchange ScalHFX         ....  0.270000
   Scaling of DF-GGA-X  ScalDFX         ....  0.730000
   Scaling of DF-GGA-C  ScalDFC         ....  1.000000
   Scaling of DF-LDA-C  ScalLDAC        ....  1.000000
   Perturbative correction              ....  0.000000
   Density functional embedding theory  .... OFF


[...]
  41   0.0000       1.568352        42.6770 
  42   0.0000       1.579550        42.9818 
  43   0.0000       1.579552        42.9818 
  44   0.0000       1.603521        43.6340 
  45   0.0000       1.603521        43.6340 
  46   0.0000       1.669431        45.4275 
  47   0.0000       1.678572        45.6763 
  48   0.0000       1.678572        45.6763 
  49   0.0000       1.778522        48.3961 
  50   0.0000       1.972902        53.6854 
  51   0.0000       2.025765        55.1239 
  52   0.0000       2.025774        55.1241 
  53   0.0000       2.039857        55.5073 
  54   0.0000       2.039857        55.5073 
  55   0.0000       2.069364        56.3102 
  56   0.0000       2.369226        64.4699 
  57   0.0000       2.370114        64.4941 
  58   0.0000       2.422281        65.9136 
  59   0.0000       2.422281        65.9136 
  60   0.0000       2.739275        74.5394 
  61   0.0000       3.482706        94.7693 
  62   0.0000       3.482706        94.7693 
  63   0.0000       3.766395       102.4888 
  64   0.0000       4.213457       114.6540 
  65   0.0000       4.754873       129.3867 
  66   0.0000       4.754873       129.3867 
  67   0.0000       4.762380       129.5909 
  68   0.0000       4.762381       129.5910 
  69   0.0000       4.820225       131.1650 
  70   0.0000       4.820225       131.1650 
  71   0.0000       4.994863       135.9171 
  72   0.0000       5.506797       149.8476 
  73   0.0000       5.506797       149.8476 
  74   0.0000       5.506966       149.8522 
  75   0.0000       5.506991       149.8528 
  76   0.0000       5.507452       149.8654 
  77   0.0000       5.507470       149.8659 
  78   0.0000       5.510606       149.9512 
  79   0.0000       5.510606       149.9512 
  80   0.0000       5.553070       151.1067 
  81   0.0000       7.015270       190.8952 
  82   0.0000       7.015597       190.9041 
  83   0.0000       7.027890       191.2386 
  84   0.0000       7.027890       191.2386 
  85   0.0000       7.032574       191.3661 
  86   0.0000       7.032574       191.3661 
  87   0.0000       7.131445       194.0565 
  88   0.0000       8.656059       235.5433 
  89   0.0000       8.656668       235.5599 
  90   0.0000       8.682346       236.2587 
  91   0.0000       8.682346       236.2587 
  92   0.0000       8.844535       240.6720 
  93   0.0000      33.495197       911.4507 
  94   0.0000      56.975483      1550.3817 
  95   0.0000     110.261391      3000.3650 

                    ********************************
                    * MULLIKEN POPULATION ANALYSIS *
                    ********************************

-----------------------
MULLIKEN ATOMIC CHARGES
-----------------------
   0 Ag:    0.641509
   1 F :   -0.641509
Sum of atomic charges:   -0.0000000

--------------------------------
MULLIKEN REDUCED ORBITAL CHARGES
--------------------------------
  0 Ags       :     2.304551  s :     2.304551
      pz      :     2.051088  p :     6.095804
      px      :     2.022358
      py      :     2.022358
      dz2     :     1.944390  d :     9.952546
      dxz     :     2.003750
      dyz     :     2.003750
      dx2y2   :     2.000327
      dxy     :     2.000328
      f0      :     0.002777  f :     0.005522
      f+1     :     0.001268
      f-1     :     0.001268
      f+2     :     0.000105
      f-2     :     0.000105
      f+3     :     0.000000
      f-3     :     0.000000
      g0      :     0.000040  g :     0.000069
      g+1     :     0.000015
      g-1     :     0.000015
      g+2     :     0.000000
      g-2     :     0.000000
      g+3     :     0.000000
      g-3     :     0.000000
      g+4     :     0.000000
      g-4     :     0.000000
  1 F s       :     3.965135  s :     3.965135
      pz      :     1.729192  p :     5.676299
      px      :     1.973554
      py      :     1.973554
      dz2     :     0.002794  d :    -0.000003
      dxz     :    -0.000965
      dyz     :    -0.000965
      dx2y2   :    -0.000433
      dxy     :    -0.000434
      f0      :     0.000033  f :     0.000077
      f+1     :     0.000020
      f-1     :     0.000020
      f+2     :     0.000001
      f-2     :     0.000001
      f+3     :     0.000000
      f-3     :     0.000000


                     *******************************
                     * LOEWDIN POPULATION ANALYSIS *
                     *******************************

----------------------
LOEWDIN ATOMIC CHARGES
----------------------
   0 Ag:    0.715458
   1 F :   -0.715458

-------------------------------
LOEWDIN REDUCED ORBITAL CHARGES
-------------------------------
  0 Ags       :     2.181348  s :     2.181348
      pz      :     2.066634  p :     6.130065
      px      :     2.031716
      py      :     2.031716
      dz2     :     1.975690  d :     9.963707
      dxz     :     1.996557
      dyz     :     1.996557
      dx2y2   :     1.997452
      dxy     :     1.997452
      f0      :     0.004746  f :     0.009302
      f+1     :     0.002159
      f-1     :     0.002159
      f+2     :     0.000119
      f-2     :     0.000119
      f+3     :     0.000000
      f-3     :     0.000000
      g0      :     0.000068  g :     0.000120
      g+1     :     0.000026
      g-1     :     0.000026
      g+2     :     0.000000
      g-2     :     0.000000
      g+3     :     0.000000
      g-3     :     0.000000
      g+4     :     0.000000
      g-4     :     0.000000
  1 F s       :     3.900361  s :     3.900361
      pz      :     1.822612  p :     5.722625
      px      :     1.950007
      py      :     1.950007
      dz2     :     0.048451  d :     0.092275
      dxz     :     0.019486
      dyz     :     0.019486
      dx2y2   :     0.002426
      dxy     :     0.002425
      f0      :     0.000091  f :     0.000198
      f+1     :     0.000050
      f-1     :     0.000050
      f+2     :     0.000004
      f-2     :     0.000004
      f+3     :     0.000000
      f-3     :     0.000000


                      *****************************
                      * MAYER POPULATION ANALYSIS *
                      *****************************

  NA   - Mulliken gross atomic population
  ZA   - Total nuclear charge
  QA   - Mulliken gross atomic charge
  VA   - Mayer's total valence
  BVA  - Mayer's bonded valence
  FA   - Mayer's free valence

  ATOM       NA         ZA         QA         VA         BVA        FA
  0 Ag    18.3585    19.0000     0.6415     0.5636     0.5636    -0.0000
  1 F      9.6415     9.0000    -0.6415     0.5636     0.5636    -0.0000

  Mayer bond orders larger than 0.100000
B(  0-Ag,  1-F ) :   0.5636 

-------
TIMINGS
-------

Total SCF time: 0 days 0 hours 0 min 1 sec 

Total time                  ....       1.569 sec
Sum of individual times     ....       1.345 sec  ( 85.7%)

Fock matrix formation       ....       1.161 sec  ( 74.0%)
  XC integration            ....       0.114 sec  (  9.8% of F)
    Basis function eval.    ....       0.009 sec  (  7.5% of XC)
    Density eval.           ....       0.011 sec  (  9.9% of XC)
    XC-Functional eval.     ....       0.029 sec  ( 25.3% of XC)
    XC-Potential eval.      ....       0.015 sec  ( 13.2% of XC)
Diagonalization             ....       0.010 sec  (  0.6%)
Density matrix formation    ....       0.002 sec  (  0.1%)
Population analysis         ....       0.004 sec  (  0.3%)
Initial guess               ....       0.005 sec  (  0.3%)
Orbital Transformation      ....       0.000 sec  (  0.0%)
Orbital Orthonormalization  ....       0.002 sec  (  0.2%)
DIIS solution               ....       0.004 sec  (  0.2%)
Grid generation             ....       0.159 sec  ( 10.1%)


-------------------------------------------------------------------------------
                          DFT DISPERSION CORRECTION                            
                                                                               
                              DFTD3 V3.1  Rev 1                                
                              USING zero damping                               
-------------------------------------------------------------------------------
The M06 functional is recognized
Active option DFTDOPT                   ...         3   

molecular C6(AA) [au] = 356.585227 


            DFT-D V3
 parameters
 s6 scaling factor         :     1.0000 
 rs6 scaling factor        :     1.3250 
 s8 scaling factor         :     0.0000 
 rs8 scaling factor        :     1.0000 
 Damping factor alpha6     :    14.0000 
 Damping factor alpha8     :    16.0000 
 ad hoc parameters k1-k3   :    16.0000     1.3333    -4.0000 

 Edisp/kcal,au: -0.000405559027  -0.000000646299 
 E6   /kcal   :  -0.000405559 
 E8   /kcal   :  -0.000000000 
 % E8         :   0.000000000 

-------------------------   ----------------
Dispersion correction           -0.000000646
-------------------------   ----------------


-------------------------   --------------------
FINAL SINGLE POINT ENERGY      -246.870001230700
-------------------------   --------------------

                                *** OPTIMIZATION RUN DONE ***

                            ***************************************
                            *     ORCA property calculations      *
                            ***************************************

                                    ---------------------
                                    Active property flags
                                    ---------------------
   (+) Dipole Moment


------------------------------------------------------------------------------
                       ORCA ELECTRIC PROPERTIES CALCULATION
------------------------------------------------------------------------------

Dipole Moment Calculation                       ... on
Quadrupole Moment Calculation                   ... off
Polarizability Calculation                      ... off
GBWName                                         ... Ag01N0_F.gbw
Electron density file                           ... Ag01N0_F.scfp
The origin for moment calculation is the CENTER OF MASS  = ( 0.000000,  0.000000  0.071111)

-------------
DIPOLE MOMENT
-------------
                                X             Y             Z
Electronic contribution:      0.00000      -0.00000      20.72293
Nuclear contribution   :      0.00000       0.00000     -18.37178
                        -----------------------------------------
Total Dipole Moment    :      0.00000      -0.00000       2.35115
                        -----------------------------------------
Magnitude (a.u.)       :      2.35115
Magnitude (Debye)      :      5.97616



--------------------
Rotational spectrum 
--------------------
 
Rotational constants in cm-1:     0.000000     0.255154     0.255154 
Rotational constants in MHz :     0.000000  7649.339033  7649.339033 

 Dipole components along the rotational axes: 
x,y,z [a.u.] :     2.351154    -0.000000     0.000000 
x,y,z [Debye]:     5.976159    -0.000000     0.000000 

 

----------------------------------------------------------------------------
                           ORCA NUMERICAL FREQUENCIES
                              (24-process run)
----------------------------------------------------------------------------

Number of atoms                ... 2
Central differences            ... used
Number of displacements        ... 12
Numerical increment            ... 5.000e-03 bohr
IR-spectrum generation         ... on
Raman-spectrum generation      ... off
Surface Crossing Hessian       ... off

 WARNING: There are more processes than displacements to do
  ====> : Reducing number of processes to   6

The output will be reduced. Please look at the following files:
SCF program output             ... >Ag01N0_F.lastscf
Integral program output        ... >Ag01N0_F.lastint
Gradient program output        ... >Ag01N0_F.lastgrad
Dipole moment program output   ... >Ag01N0_F.lastmom
AutoCI program output          ... >Ag01N0_F.lastautoci


         <<< Energy and Gradient at the input geometry >>>

        <<< Energy and Gradient at displaced geometries >>>
             <<<Displacing   2/coordinate 2 (+)>>>
             <<<Displacing   1/coordinate 3 (+)>>>
             <<<Displacing   2/coordinate 3 (+)>>>
             <<<Displacing   1/coordinate 1 (+)>>>
             <<<Displacing   1/coordinate 2 (+)>>>
             <<<Displacing   2/coordinate 1 (+)>>>
             <<<Displacing   1/coordinate 1 (-)>>>
             <<<Displacing   1/coordinate 2 (-)>>>
             <<<Displacing   2/coordinate 1 (-)>>>
             <<<Displacing   2/coordinate 2 (-)>>>
             <<<Displacing   2/coordinate 3 (-)>>>
             <<<Displacing   1/coordinate 3 (-)>>>
Warning: T+R mode no 5 is zero 

-----------------------
VIBRATIONAL FREQUENCIES
-----------------------

Scaling factor for frequencies =  1.000000000 (already applied!)

   0:         0.00 cm**-1
   1:         0.00 cm**-1
   2:         0.00 cm**-1
   3:         0.00 cm**-1
   4:         0.00 cm**-1
   5:       474.99 cm**-1


------------
NORMAL MODES
------------

These modes are the cartesian displacements weighted by the diagonal matrix
M(i,i)=1/sqrt(m[i]) where m[i] is the mass of the displaced atom
Thus, these vectors are normalized but *not* orthogonal

                  0          1          2          3          4          5    
      0       0.000000   0.000000   0.000000   0.000000   0.000000   0.000000
      1       0.000000   0.000000   0.000000   0.000000   0.000000   0.000000
      2       0.000000   0.000000   0.000000   0.000000   0.000000   0.173450
      3       0.000000   0.000000   0.000000   0.000000   0.000000   0.000000
      4       0.000000   0.000000   0.000000   0.000000   0.000000   0.000000
      5       0.000000   0.000000   0.000000   0.000000   0.000000  -0.984843


-----------
IR SPECTRUM  
-----------

 Mode    freq (cm**-1)   T**2         TX         TY         TZ
-------------------------------------------------------------------
   5:       474.99   53.845360  ( -0.000004  -0.000055   7.337940)

The first frequency considered to be a vibration is 5
The total number of vibrations considered is 1


--------------------------
THERMOCHEMISTRY AT 298.15K
--------------------------

Temperature         ... 298.15 K
Pressure            ... 1.00 atm
Total Mass          ... 126.87 AMU
The molecule is recognized as being linear

Throughout the following assumptions are being made:
  (1) The electronic state is orbitally nondegenerate
  (2) There are no thermally accessible electronically excited states
  (3) Hindered rotations indicated by low frequency modes are not
      treated as such but are treated as vibrations and this may
      cause some error
  (4) All equations used are the standard statistical mechanics
      equations for an ideal gas
  (5) All vibrations are strictly harmonic

freq.     474.99  E(vib)   ...       0.15 

------------
INNER ENERGY
------------

The inner energy is: U= E(el) + E(ZPE) + E(vib) + E(rot) + E(trans)
    E(el)   - is the total energy from the electronic structure calculation
              = E(kin-el) + E(nuc-el) + E(el-el) + E(nuc-nuc)
    E(ZPE)  - the the zero temperature vibrational energy from the frequency calculation
    E(vib)  - the the finite temperature correction to E(ZPE) due to population
              of excited vibrational states
    E(rot)  - is the rotational thermal energy
    E(trans)- is the translational thermal energy

Summary of contributions to the inner energy U:
Electronic energy                ...   -246.87000123 Eh
Zero point energy                ...      0.00108210 Eh       0.68 kcal/mol
Thermal vibrational correction   ...      0.00024329 Eh       0.15 kcal/mol
Thermal rotational correction    ...      0.00094418 Eh       0.59 kcal/mol
Thermal translational correction ...      0.00141627 Eh       0.89 kcal/mol
-----------------------------------------------------------------------
Total thermal energy                   -246.86631538 Eh


Summary of corrections to the electronic energy:
(perhaps to be used in another calculation)
Total thermal correction                  0.00260374 Eh       1.63 kcal/mol
Non-thermal (ZPE) correction              0.00108210 Eh       0.68 kcal/mol
-----------------------------------------------------------------------
Total correction                          0.00368585 Eh       2.31 kcal/mol


--------
ENTHALPY
--------

The enthalpy is H = U + kB*T
                kB is Boltzmann's constant
Total free energy                 ...   -246.86631538 Eh 
Thermal Enthalpy correction       ...      0.00094421 Eh       0.59 kcal/mol
-----------------------------------------------------------------------
Total Enthalpy                    ...   -246.86537117 Eh


Note: Rotational entropy computed according to Herzberg 
Infrared and Raman Spectra, Chapter V,1, Van Nostrand Reinhold, 1945 
Point Group:  Cinfv, Symmetry Number:   1  
Rotational constants in cm-1:     0.000000     0.255154     0.255154 

Vibrational entropy computed according to the QRRHO of S. Grimme
Chem.Eur.J. 2012 18 9955


-------
ENTROPY
-------

The entropy contributions are T*S = T*(S(el)+S(vib)+S(rot)+S(trans))
     S(el)   - electronic entropy
     S(vib)  - vibrational entropy
     S(rot)  - rotational entropy
     S(trans)- translational entropy
The entropies will be listed as mutliplied by the temperature to get
units of energy

Electronic entropy                ...      0.00000000 Eh      0.00 kcal/mol
Vibrational entropy               ...      0.00034441 Eh      0.22 kcal/mol
Rotational entropy                ...      0.00726991 Eh      4.56 kcal/mol
Translational entropy             ...      0.01920828 Eh     12.05 kcal/mol
-----------------------------------------------------------------------
Final entropy term                ...      0.02682260 Eh     16.83 kcal/mol

In case the symmetry of your molecule has not been determined correctly
or in case you have a reason to use a different symmetry number we print 
out the resulting rotational entropy values for sn=1,12 :
 --------------------------------------------------------
|  sn= 1 | S(rot)=             -inf Eh      -inf kcal/mol|
|  sn= 2 | S(rot)=             -inf Eh      -inf kcal/mol|
|  sn= 3 | S(rot)=             -inf Eh      -inf kcal/mol|
|  sn= 4 | S(rot)=             -inf Eh      -inf kcal/mol|
|  sn= 5 | S(rot)=             -inf Eh      -inf kcal/mol|
|  sn= 6 | S(rot)=             -inf Eh      -inf kcal/mol|
|  sn= 7 | S(rot)=             -inf Eh      -inf kcal/mol|
|  sn= 8 | S(rot)=             -inf Eh      -inf kcal/mol|
|  sn= 9 | S(rot)=             -inf Eh      -inf kcal/mol|
|  sn=10 | S(rot)=             -inf Eh      -inf kcal/mol|
|  sn=11 | S(rot)=             -inf Eh      -inf kcal/mol|
|  sn=12 | S(rot)=             -inf Eh      -inf kcal/mol|
 --------------------------------------------------------


-------------------
GIBBS FREE ENERGY
-------------------

The Gibbs free energy is G = H - T*S

Total enthalpy                    ...   -246.86537117 Eh 
Total entropy correction          ...     -0.02682260 Eh    -16.83 kcal/mol
-----------------------------------------------------------------------
Final Gibbs free energy         ...   -246.89219378 Eh

For completeness - the Gibbs free energy minus the electronic energy
G-E(el)                           ...     -0.02219255 Eh    -13.93 kcal/mol


Total Time for Numerical Frequencies  :        28.283 sec

Timings for individual modules:

Sum of individual times         ...       26.039 sec (=   0.434 min)
GTO integral calculation        ...        4.493 sec (=   0.075 min)  17.3 %
SCF iterations                  ...       15.523 sec (=   0.259 min)  59.6 %
SCF Gradient evaluation         ...        5.740 sec (=   0.096 min)  22.0 %
Geometry relaxation             ...        0.283 sec (=   0.005 min)   1.1 %
                             ****ORCA TERMINATED NORMALLY****
TOTAL RUN TIME: 0 days 0 hours 0 minutes 52 seconds 345 msec
